 argument  1 = Cn1cnc2c1c(=O)n(C)c(=O)n2C pbe0.nw



============================== echo of input deck ==============================
start

title "Cn1cnc2c1c(=O)n(C)c(=O)n2C"

echo
geometry Cn1cnc2c1c(=O)n(C)c(=O)n2C
   C      3.3034     0.4700    -0.0316
   N      2.1199    -0.3833    -0.0065
   C      2.0910    -1.7385     0.0201
   N      0.8309    -2.2465     0.0200
   C      0.0615    -1.1393    -0.0058
   C      0.8256    -0.0236    -0.0246
   C      0.2367     1.2328    -0.0794
   O      0.9494     2.2731    -0.1181
   N     -1.1378     1.3070    -0.0997
   C     -1.7992     2.6190    -0.1952
   C     -1.8984     0.1487    -0.1098
   O     -3.1568     0.2254    -0.1964
   N     -1.2980    -1.0901    -0.0340
   C     -2.0938    -2.3243    -0.0677
   H      3.2877     1.1586     0.8390
   H      4.2268    -0.1453     0.0192
   H      3.3195     1.0601    -0.9718
   H      2.9785    -2.3581     0.0351
   H     -1.1921     3.4149     0.2866
   H     -1.9580     2.8787    -1.2630
   H     -2.7787     2.6123     0.3290
   H     -1.5398    -3.1747     0.3840
   H     -2.3468    -2.5750    -1.1193
   H     -3.0315    -2.2019     0.5154
end


basis spherical
* library 6-311G
end

driver
  tight
  maxiter 200
  xyz final
end

dft
direct
xc pbe0
noprint "final vectors analysis" multipole
end

set geometry Cn1cnc2c1c(=O)n(C)c(=O)n2C
task dft optimize

property
   shielding
end

cosmo
   solvent cdcl3
end

task dft property
================================================================================


                                         
                                         


             Northwest Computational Chemistry Package (NWChem) 7.0.2
             --------------------------------------------------------


                    Environmental Molecular Sciences Laboratory
                       Pacific Northwest National Laboratory
                                Richland, WA 99352

                              Copyright (c) 1994-2020
                       Pacific Northwest National Laboratory
                            Battelle Memorial Institute

             NWChem is an open-source computational chemistry package
                        distributed under the terms of the
                      Educational Community License (ECL) 2.0
             A copy of the license is included with this distribution
                              in the LICENSE.TXT file

                                  ACKNOWLEDGMENT
                                  --------------

            This software and its documentation were developed at the
            EMSL at Pacific Northwest National Laboratory, a multiprogram
            national laboratory, operated for the U.S. Department of Energy
            by Battelle under Contract Number DE-AC05-76RL01830. Support
            for this work was provided by the Department of Energy Office
            of Biological and Environmental Research, Office of Basic
            Energy Sciences, and the Office of Advanced Scientific Computing.


           Job information
           ---------------

    hostname        = raj-thinkpad-e590
    program         = nwchem
    date            = Mon Jun 10 16:35:40 2024

    compiled        = Sat_Apr_09_17:12:10_2022
    source          = /build/nwchem-f1f4gx/nwchem-7.0.2/build-openmpi
    nwchem branch   = 7.0.2
    nwchem revision = N/A
    ga revision     = 5.8.1
    use scalapack   = T
    input           = Cn1cnc2c1c(=O)n(C)c(=O)n2C pbe0.nw
    prefix          = Cn1cnc2c1c(=O)n(C)c(=O)n2C pbe0.
    data base       = ./Cn1cnc2c1c(=O)n(C)c(=O)n2C pbe0.db
    status          = startup
    nproc           =        1
    time left       =     -1s



           Memory information
           ------------------

    heap     =   13107198 doubles =    100.0 Mbytes
    stack    =   13107195 doubles =    100.0 Mbytes
    global   =   26214400 doubles =    200.0 Mbytes (distinct from heap & stack)
    total    =   52428793 doubles =    400.0 Mbytes
    verify   = yes
    hardfail = no 


           Directory information
           ---------------------

  0 permanent = .
  0 scratch   = .




                                NWChem Input Module
                                -------------------


                            Cn1cnc2c1c(=O)n(C)c(=O)n2C
                            --------------------------

 Scaling coordinates for geometry "Cn1cnc2c1c(=O)n(C)c(=O)n2C" by  1.889725989
 (inverse scale =  0.529177249)

 C1  symmetry detected

          ------
          auto-z
          ------
  no constraints, skipping    0.0000000000000000     
  no constraints, skipping    0.0000000000000000     


                    Geometry "Cn1cnc2c1c(=O)n(C)c(=O)n2C" -> ""
                    -------------------------------------------

 Output coordinates in angstroms (scale by  1.889725989 to convert to a.u.)

  No.       Tag          Charge          X              Y              Z
 ---- ---------------- ---------- -------------- -------------- --------------
    1 C                    6.0000     1.05797074    -3.25493136    -0.02797640
    2 N                    7.0000     0.01165240    -2.23816283     0.00070888
    3 C                    6.0000    -1.32819272    -2.44498609    -0.01149848
    4 N                    7.0000    -2.04726111    -1.29232858     0.00390730
    5 C                    6.0000    -1.09029906    -0.34252153     0.02888826
    6 C                    6.0000     0.14131864    -0.90116710     0.02423027
    7 C                    6.0000     1.27724013    -0.10240952     0.02023770
    8 O                    8.0000     2.42618459    -0.62292775    -0.00526664
    9 N                    7.0000     1.11195499     1.26420153     0.03517155
   10 C                    6.0000     2.29101422     2.14512597    -0.00612840
   11 C                    6.0000    -0.16028487     1.81286023     0.00962485
   12 O                    8.0000    -0.30130964     3.06750954    -0.04441341
   13 N                    7.0000    -1.27739617     1.00522303     0.03483861
   14 C                    6.0000    -2.62989589     1.57608007    -0.01565598
   15 H                    1.0000     1.71180951    -3.14533686     0.86244188
   16 H                    1.0000     0.61142167    -4.27194819    -0.01734761
   17 H                    1.0000     1.66476642    -3.14164664    -0.95070000
   18 H                    1.0000    -1.78433515    -3.42637478    -0.03590599
   19 H                    1.0000     3.16823885     1.67131907     0.48391488
   20 H                    1.0000     2.54527523     2.37709189    -1.06178058
   21 H                    1.0000     2.10136738     3.09321352     0.54105974
   22 H                    1.0000    -3.38191396     0.87053082     0.39762132
   23 H                    1.0000    -2.89488028     1.81199759    -1.06772454
   24 H                    1.0000    -2.68662716     2.50366309     0.59314610

      Atomic Mass 
      ----------- 

      C                 12.000000
      N                 14.003070
      O                 15.994910
      H                  1.007825


 Effective nuclear repulsion energy (a.u.)     932.4876301751

            Nuclear Dipole moment (a.u.) 
            ----------------------------
        X                 Y               Z
 ---------------- ---------------- ----------------
     0.0000000000     0.0000000000    -0.0000000000



                                Z-matrix (autoz)
                                -------- 

 Units are Angstrom for bonds and degrees for angles

      Type          Name      I     J     K     L     M      Value
      ----------- --------  ----- ----- ----- ----- ----- ----------
    1 Stretch                  1     2                       1.45925
    2 Stretch                  1    15                       1.11012
    3 Stretch                  1    16                       1.11078
    4 Stretch                  1    17                       1.11016
    5 Stretch                  2     3                       1.35577
    6 Stretch                  2     6                       1.34347
    7 Stretch                  3     4                       1.35864
    8 Stretch                  3    18                       1.08249
    9 Stretch                  4     5                       1.34853
   10 Stretch                  5     6                       1.35240
   11 Stretch                  5    13                       1.36068
   12 Stretch                  6     7                       1.38865
   13 Stretch                  7     8                       1.26161
   14 Stretch                  7     9                       1.37665
   15 Stretch                  9    10                       1.47238
   16 Stretch                  9    11                       1.38574
   17 Stretch                 10    19                       1.11093
   18 Stretch                 10    20                       1.11034
   19 Stretch                 10    21                       1.11097
   20 Stretch                 11    12                       1.26371
   21 Stretch                 11    13                       1.37871
   22 Stretch                 13    14                       1.46891
   23 Stretch                 14    22                       1.11091
   24 Stretch                 14    23                       1.11028
   25 Stretch                 14    24                       1.11098
   26 Bend                     1     2     3               127.02267
   27 Bend                     1     2     6               128.64937
   28 Bend                     2     1    15               109.74035
   29 Bend                     2     1    16               110.45760
   30 Bend                     2     1    17               109.70338
   31 Bend                     2     3     4               113.17331
   32 Bend                     2     3    18               123.70650
   33 Bend                     2     6     5               108.85954
   34 Bend                     2     6     7               130.64199
   35 Bend                     3     2     6               104.32102
   36 Bend                     3     4     5               102.83690
   37 Bend                     4     3    18               123.11955
   38 Bend                     4     5     6               110.80880
   39 Bend                     4     5    13               126.87959
   40 Bend                     5     6     7               120.48777
   41 Bend                     5    13    11               117.95179
   42 Bend                     5    13    14               120.75632
   43 Bend                     6     5    13               122.30230
   44 Bend                     6     7     8               120.51025
   45 Bend                     6     7     9               118.21401
   46 Bend                     7     9    10               119.83381
   47 Bend                     7     9    11               120.20358
   48 Bend                     8     7     9               121.27415
   49 Bend                     9    10    19               111.39398
   50 Bend                     9    10    20               109.57467
   51 Bend                     9    10    21               111.10440
   52 Bend                     9    11    12               119.75807
   53 Bend                     9    11    13               120.77190
   54 Bend                    10     9    11               119.85400
   55 Bend                    11    13    14               121.18234
   56 Bend                    12    11    13               119.46901
   57 Bend                    13    14    22               111.32657
   58 Bend                    13    14    23               109.56657
   59 Bend                    13    14    24               110.64982
   60 Bend                    15     1    16               108.63223
   61 Bend                    15     1    17               109.55239
   62 Bend                    16     1    17               108.73046
   63 Bend                    19    10    20               109.12715
   64 Bend                    19    10    21               106.34969
   65 Bend                    20    10    21               109.21285
   66 Bend                    22    14    23               109.02017
   67 Bend                    22    14    24               106.96814
   68 Bend                    23    14    24               109.24822
   69 Torsion                  1     2     3     4        -179.12747
   70 Torsion                  1     2     3    18           0.59119
   71 Torsion                  1     2     6     5         179.22580
   72 Torsion                  1     2     6     7           0.43833
   73 Torsion                  2     3     4     5          -0.10130
   74 Torsion                  2     6     5     4          -0.21786
   75 Torsion                  2     6     5    13        -179.17899
   76 Torsion                  2     6     7     8          -0.21612
   77 Torsion                  2     6     7     9         179.33018
   78 Torsion                  3     2     1    15        -122.24747
   79 Torsion                  3     2     1    16          -2.50159
   80 Torsion                  3     2     1    17         117.34238
   81 Torsion                  3     2     6     5           0.14225
   82 Torsion                  3     2     6     7        -178.64522
   83 Torsion                  3     4     5     6           0.19004
   84 Torsion                  3     4     5    13         179.09228
   85 Torsion                  4     3     2     6          -0.02393
   86 Torsion                  4     5     6     7         178.71448
   87 Torsion                  4     5    13    11        -177.54172
   88 Torsion                  4     5    13    14          -1.30281
   89 Torsion                  5     4     3    18        -179.82186
   90 Torsion                  5     6     7     8        -178.88456
   91 Torsion                  5     6     7     9           0.66174
   92 Torsion                  5    13    11     9          -2.69374
   93 Torsion                  5    13    11    12         176.93717
   94 Torsion                  5    13    14    22          25.85986
   95 Torsion                  5    13    14    23         -94.80828
   96 Torsion                  5    13    14    24         144.67201
   97 Torsion                  6     2     1    15          58.86474
   98 Torsion                  6     2     1    16         178.61063
   99 Torsion                  6     2     1    17         -61.54540
  100 Torsion                  6     2     3    18         179.69473
  101 Torsion                  6     5    13    11           1.24422
  102 Torsion                  6     5    13    14         177.48313
  103 Torsion                  6     7     9    10        -178.31066
  104 Torsion                  6     7     9    11          -2.10473
  105 Torsion                  7     6     5    13          -0.24665
  106 Torsion                  7     9    10    19         -30.64736
  107 Torsion                  7     9    10    20          90.20385
  108 Torsion                  7     9    10    21        -149.02467
  109 Torsion                  7     9    11    12        -176.44636
  110 Torsion                  7     9    11    13           3.18349
  111 Torsion                  8     7     9    10           1.23201
  112 Torsion                  8     7     9    11         177.43794
  113 Torsion                  9    11    13    14        -178.91580
  114 Torsion                 10     9    11    12          -0.24120
  115 Torsion                 10     9    11    13         179.38865
  116 Torsion                 11     9    10    19         153.13333
  117 Torsion                 11     9    10    20         -86.01546
  118 Torsion                 11     9    10    21          34.75602
  119 Torsion                 11    13    14    22        -158.02372
  120 Torsion                 11    13    14    23          81.30814
  121 Torsion                 11    13    14    24         -39.21157
  122 Torsion                 12    11    13    14           0.71510


            XYZ format geometry
            -------------------
    24
 Cn1cnc2c1c(=O)n(C)c(=O)n2C
 C                     1.05797074    -3.25493136    -0.02797640
 N                     0.01165240    -2.23816283     0.00070888
 C                    -1.32819272    -2.44498609    -0.01149848
 N                    -2.04726111    -1.29232858     0.00390730
 C                    -1.09029906    -0.34252153     0.02888826
 C                     0.14131864    -0.90116710     0.02423027
 C                     1.27724013    -0.10240952     0.02023770
 O                     2.42618459    -0.62292775    -0.00526664
 N                     1.11195499     1.26420153     0.03517155
 C                     2.29101422     2.14512597    -0.00612840
 C                    -0.16028487     1.81286023     0.00962485
 O                    -0.30130964     3.06750954    -0.04441341
 N                    -1.27739617     1.00522303     0.03483861
 C                    -2.62989589     1.57608007    -0.01565598
 H                     1.71180951    -3.14533686     0.86244188
 H                     0.61142167    -4.27194819    -0.01734761
 H                     1.66476642    -3.14164664    -0.95070000
 H                    -1.78433515    -3.42637478    -0.03590599
 H                     3.16823885     1.67131907     0.48391488
 H                     2.54527523     2.37709189    -1.06178058
 H                     2.10136738     3.09321352     0.54105974
 H                    -3.38191396     0.87053082     0.39762132
 H                    -2.89488028     1.81199759    -1.06772454
 H                    -2.68662716     2.50366309     0.59314610

 ==============================================================================
                                internuclear distances
 ------------------------------------------------------------------------------
       center one      |      center two      | atomic units |  angstroms
 ------------------------------------------------------------------------------
    2 N                |   1 C                |     2.75759  |     1.45925
    3 C                |   2 N                |     2.56203  |     1.35577
    4 N                |   3 C                |     2.56747  |     1.35864
    5 C                |   4 N                |     2.54835  |     1.34853
    6 C                |   2 N                |     2.53880  |     1.34347
    6 C                |   5 C                |     2.55567  |     1.35240
    7 C                |   6 C                |     2.62417  |     1.38865
    8 O                |   7 C                |     2.38410  |     1.26161
    9 N                |   7 C                |     2.60149  |     1.37665
   10 C                |   9 N                |     2.78240  |     1.47238
   11 C                |   9 N                |     2.61867  |     1.38574
   12 O                |  11 C                |     2.38806  |     1.26371
   13 N                |   5 C                |     2.57132  |     1.36068
   13 N                |  11 C                |     2.60539  |     1.37871
   14 C                |  13 N                |     2.77583  |     1.46891
   15 H                |   1 C                |     2.09782  |     1.11012
   16 H                |   1 C                |     2.09908  |     1.11078
   17 H                |   1 C                |     2.09790  |     1.11016
   18 H                |   3 C                |     2.04561  |     1.08249
   19 H                |  10 C                |     2.09935  |     1.11093
   20 H                |  10 C                |     2.09824  |     1.11034
   21 H                |  10 C                |     2.09943  |     1.11097
   22 H                |  14 C                |     2.09932  |     1.11091
   23 H                |  14 C                |     2.09813  |     1.11028
   24 H                |  14 C                |     2.09944  |     1.11098
 ------------------------------------------------------------------------------
                         number of included internuclear distances:         25
 ==============================================================================



 ==============================================================================
                                 internuclear angles
 ------------------------------------------------------------------------------
        center 1       |       center 2       |       center 3       |  degrees
 ------------------------------------------------------------------------------
    2 N                |   1 C                |  15 H                |   109.74
    2 N                |   1 C                |  16 H                |   110.46
    2 N                |   1 C                |  17 H                |   109.70
   15 H                |   1 C                |  16 H                |   108.63
   15 H                |   1 C                |  17 H                |   109.55
   16 H                |   1 C                |  17 H                |   108.73
    1 C                |   2 N                |   3 C                |   127.02
    1 C                |   2 N                |   6 C                |   128.65
    3 C                |   2 N                |   6 C                |   104.32
    2 N                |   3 C                |   4 N                |   113.17
    2 N                |   3 C                |  18 H                |   123.71
    4 N                |   3 C                |  18 H                |   123.12
    3 C                |   4 N                |   5 C                |   102.84
    4 N                |   5 C                |   6 C                |   110.81
    4 N                |   5 C                |  13 N                |   126.88
    6 C                |   5 C                |  13 N                |   122.30
    2 N                |   6 C                |   5 C                |   108.86
    2 N                |   6 C                |   7 C                |   130.64
    5 C                |   6 C                |   7 C                |   120.49
    6 C                |   7 C                |   8 O                |   120.51
    6 C                |   7 C                |   9 N                |   118.21
    8 O                |   7 C                |   9 N                |   121.27
    7 C                |   9 N                |  10 C                |   119.83
    7 C                |   9 N                |  11 C                |   120.20
   10 C                |   9 N                |  11 C                |   119.85
    9 N                |  10 C                |  19 H                |   111.39
    9 N                |  10 C                |  20 H                |   109.57
    9 N                |  10 C                |  21 H                |   111.10
   19 H                |  10 C                |  20 H                |   109.13
   19 H                |  10 C                |  21 H                |   106.35
   20 H                |  10 C                |  21 H                |   109.21
    9 N                |  11 C                |  12 O                |   119.76
    9 N                |  11 C                |  13 N                |   120.77
   12 O                |  11 C                |  13 N                |   119.47
    5 C                |  13 N                |  11 C                |   117.95
    5 C                |  13 N                |  14 C                |   120.76
   11 C                |  13 N                |  14 C                |   121.18
   13 N                |  14 C                |  22 H                |   111.33
   13 N                |  14 C                |  23 H                |   109.57
   13 N                |  14 C                |  24 H                |   110.65
   22 H                |  14 C                |  23 H                |   109.02
   22 H                |  14 C                |  24 H                |   106.97
   23 H                |  14 C                |  24 H                |   109.25
 ------------------------------------------------------------------------------
                            number of included internuclear angles:         43
 ==============================================================================





 Summary of "ao basis" -> "" (spherical)
 ------------------------------------------------------------------------------
       Tag                 Description            Shells   Functions and Types
 ---------------- ------------------------------  ------  ---------------------
 *                           6-311G                   on all atoms 




                           NWChem Geometry Optimization
                           ----------------------------




                            Cn1cnc2c1c(=O)n(C)c(=O)n2C


  no constraints, skipping    0.0000000000000000     
 maximum gradient threshold         (gmax) =   0.000015
 rms gradient threshold             (grms) =   0.000010
 maximum cartesian step threshold   (xmax) =   0.000060
 rms cartesian step threshold       (xrms) =   0.000040
 fixed trust radius                (trust) =   0.300000
 maximum step size to saddle      (sadstp) =   0.100000
 energy precision                  (eprec) =   5.0D-06
 maximum number of steps          (nptopt) =  200
 initial hessian option           (inhess) =    0
 line search option               (linopt) =    1
 hessian update option            (modupd) =    1
 saddle point option              (modsad) =    0
 initial eigen-mode to follow     (moddir) =    0
 initial variable to follow       (vardir) =    0
 follow first negative mode     (firstneg) =    T
 apply conjugacy                    (opcg) =    F
 source of zmatrix                         =   autoz   


          -------------------
          Energy Minimization
          -------------------


 Names of Z-matrix variables 
    1              2              3              4              5         
    6              7              8              9             10         
   11             12             13             14             15         
   16             17             18             19             20         
   21             22             23             24             25         
   26             27             28             29             30         
   31             32             33             34             35         
   36             37             38             39             40         
   41             42             43             44             45         
   46             47             48             49             50         
   51             52             53             54             55         
   56             57             58             59             60         
   61             62             63             64             65         
   66             67             68             69             70         
   71             72             73             74             75         
   76             77             78             79             80         
   81             82             83             84             85         
   86             87             88             89             90         
   91             92             93             94             95         
   96             97             98             99            100         
  101            102            103            104            105         
  106            107            108            109            110         
  111            112            113            114            115         
  116            117            118            119            120         
  121            122         

 Variables with the same non-blank name are constrained to be equal


 Using diagonal initial Hessian 
 Scaling for Hessian diagonals: bonds = 1.00  angles = 0.25  torsions = 0.10

          --------
          Step   0
          --------


                Geometry "geometry" -> "Cn1cnc2c1c(=O)n(C)c(=O)n2C"
                ---------------------------------------------------

 Output coordinates in angstroms (scale by  1.889725989 to convert to a.u.)

  No.       Tag          Charge          X              Y              Z
 ---- ---------------- ---------- -------------- -------------- --------------
    1 C                    6.0000     1.05797074    -3.25493136    -0.02797640
    2 N                    7.0000     0.01165240    -2.23816283     0.00070888
    3 C                    6.0000    -1.32819272    -2.44498609    -0.01149848
    4 N                    7.0000    -2.04726111    -1.29232858     0.00390730
    5 C                    6.0000    -1.09029906    -0.34252153     0.02888826
    6 C                    6.0000     0.14131864    -0.90116710     0.02423027
    7 C                    6.0000     1.27724013    -0.10240952     0.02023770
    8 O                    8.0000     2.42618459    -0.62292775    -0.00526664
    9 N                    7.0000     1.11195499     1.26420153     0.03517155
   10 C                    6.0000     2.29101422     2.14512597    -0.00612840
   11 C                    6.0000    -0.16028487     1.81286023     0.00962485
   12 O                    8.0000    -0.30130964     3.06750954    -0.04441341
   13 N                    7.0000    -1.27739617     1.00522303     0.03483861
   14 C                    6.0000    -2.62989589     1.57608007    -0.01565598
   15 H                    1.0000     1.71180951    -3.14533686     0.86244188
   16 H                    1.0000     0.61142167    -4.27194819    -0.01734761
   17 H                    1.0000     1.66476642    -3.14164664    -0.95070000
   18 H                    1.0000    -1.78433515    -3.42637478    -0.03590599
   19 H                    1.0000     3.16823885     1.67131907     0.48391488
   20 H                    1.0000     2.54527523     2.37709189    -1.06178058
   21 H                    1.0000     2.10136738     3.09321352     0.54105974
   22 H                    1.0000    -3.38191396     0.87053082     0.39762132
   23 H                    1.0000    -2.89488028     1.81199759    -1.06772454
   24 H                    1.0000    -2.68662716     2.50366309     0.59314610

      Atomic Mass 
      ----------- 

      C                 12.000000
      N                 14.003070
      O                 15.994910
      H                  1.007825


 Effective nuclear repulsion energy (a.u.)     932.4876301751

            Nuclear Dipole moment (a.u.) 
            ----------------------------
        X                 Y               Z
 ---------------- ---------------- ----------------
     0.0000000000     0.0000000000    -0.0000000000


                                 NWChem DFT Module
                                 -----------------


                            Cn1cnc2c1c(=O)n(C)c(=O)n2C


                      Basis "ao basis" -> "ao basis" (spherical)
                      -----
  C (Carbon)
  ----------
            Exponent  Coefficients 
       -------------- ---------------------------------------------------------
  1 S  4.56324000E+03  0.001967
  1 S  6.82024000E+02  0.015231
  1 S  1.54973000E+02  0.076127
  1 S  4.44553000E+01  0.260801
  1 S  1.30290000E+01  0.616462
  1 S  1.82773000E+00  0.221006

  2 S  2.09642000E+01  0.114660
  2 S  4.80331000E+00  0.919999
  2 S  1.45933000E+00 -0.003031

  3 P  2.09642000E+01  0.040249
  3 P  4.80331000E+00  0.237594
  3 P  1.45933000E+00  0.815854

  4 S  4.83456000E-01  1.000000

  5 P  4.83456000E-01  1.000000

  6 S  1.45585000E-01  1.000000

  7 P  1.45585000E-01  1.000000

  N (Nitrogen)
  ------------
            Exponent  Coefficients 
       -------------- ---------------------------------------------------------
  1 S  6.29348000E+03  0.001970
  1 S  9.49044000E+02  0.014961
  1 S  2.18776000E+02  0.073501
  1 S  6.36916000E+01  0.248937
  1 S  1.88282000E+01  0.602460
  1 S  2.72023000E+00  0.256202

  2 S  3.06331000E+01  0.111906
  2 S  7.02614000E+00  0.921666
  2 S  2.11205000E+00 -0.002569

  3 P  3.06331000E+01  0.038312
  3 P  7.02614000E+00  0.237403
  3 P  2.11205000E+00  0.817592

  4 S  6.84009000E-01  1.000000

  5 P  6.84009000E-01  1.000000

  6 S  2.00878000E-01  1.000000

  7 P  2.00878000E-01  1.000000

  O (Oxygen)
  ----------
            Exponent  Coefficients 
       -------------- ---------------------------------------------------------
  1 S  8.58850000E+03  0.001895
  1 S  1.29723000E+03  0.014386
  1 S  2.99296000E+02  0.070732
  1 S  8.73771000E+01  0.240001
  1 S  2.56789000E+01  0.594797
  1 S  3.74004000E+00  0.280802

  2 S  4.21175000E+01  0.113889
  2 S  9.62837000E+00  0.920811
  2 S  2.85332000E+00 -0.003274

  3 P  4.21175000E+01  0.036511
  3 P  9.62837000E+00  0.237153
  3 P  2.85332000E+00  0.819702

  4 S  9.05661000E-01  1.000000

  5 P  9.05661000E-01  1.000000

  6 S  2.55611000E-01  1.000000

  7 P  2.55611000E-01  1.000000

  H (Hydrogen)
  ------------
            Exponent  Coefficients 
       -------------- ---------------------------------------------------------
  1 S  3.38650000E+01  0.025494
  1 S  5.09479000E+00  0.190373
  1 S  1.15879000E+00  0.852161

  2 S  3.25840000E-01  1.000000

  3 S  1.02741000E-01  1.000000



 Summary of "ao basis" -> "ao basis" (spherical)
 ------------------------------------------------------------------------------
       Tag                 Description            Shells   Functions and Types
 ---------------- ------------------------------  ------  ---------------------
 C                           6-311G                  7       13   4s3p
 N                           6-311G                  7       13   4s3p
 O                           6-311G                  7       13   4s3p
 H                           6-311G                  3        3   3s




 Summary of "ao basis" -> "ao basis" (spherical)
 ------------------------------------------------------------------------------
       Tag                 Description            Shells   Functions and Types
 ---------------- ------------------------------  ------  ---------------------
 C                           6-311G                  7       13   4s3p
 N                           6-311G                  7       13   4s3p
 O                           6-311G                  7       13   4s3p
 H                           6-311G                  3        3   3s


  Caching 1-el integrals 

            General Information
            -------------------
          SCF calculation type: DFT
          Wavefunction type:  closed shell.
          No. of atoms     :    24
          No. of electrons :   102
           Alpha electrons :    51
            Beta electrons :    51
          Charge           :     0
          Spin multiplicity:     1
          Use of symmetry is: off; symmetry adaption is: off
          Maximum number of iterations:  30
          This is a Direct SCF calculation.
          AO basis - number of functions:   212
                     number of shells:   128
          Convergence on energy requested:  1.00D-06
          Convergence on density requested:  1.00D-05
          Convergence on gradient requested:  5.00D-04

              XC Information
              --------------
                         PBE0 Method XC Functional
                     Hartree-Fock (Exact) Exchange  0.250          
          PerdewBurkeErnzerhof Exchange Functional  0.750          
            Perdew 1991 LDA Correlation Functional  1.000 local    
           PerdewBurkeErnz. Correlation Functional  1.000 non-local

             Grid Information
             ----------------
          Grid used for XC integration:  medium    
          Radial quadrature: Mura-Knowles        
          Angular quadrature: Lebedev. 
          Tag              B.-S. Rad. Rad. Pts. Rad. Cut. Ang. Pts.
          ---              ---------- --------- --------- ---------
          C                   0.70       49          15.0       434
          N                   0.65       49          14.0       434
          O                   0.60       49          15.0       434
          H                   0.35       45          16.0       434
          Grid pruning is: on 
          Number of quadrature shells:  1136
          Spatial weights used:  Erf1

          Convergence Information
          -----------------------
          Convergence aids based upon iterative change in 
          total energy or number of iterations. 
          Levelshifting, if invoked, occurs when the 
          HOMO/LUMO gap drops below (HL_TOL):  1.00D-02
          DIIS, if invoked, will attempt to extrapolate 
          using up to (NFOCK): 10 stored Fock matrices.

                    Damping( 0%)  Levelshifting(0.5)       DIIS
                  --------------- ------------------- ---------------
          dE  on:    start            ASAP                start   
          dE off:    2 iters         30 iters            30 iters 


      Screening Tolerance Information
      -------------------------------
          Density screening/tol_rho:  1.00D-10
          AO Gaussian exp screening on grid/accAOfunc:  14
          CD Gaussian exp screening on grid/accCDfunc:  20
          XC Gaussian exp screening on grid/accXCfunc:  20
          Schwarz screening/accCoul:  1.00D-08


      Superposition of Atomic Density Guess
      -------------------------------------

 Sum of atomic energies:        -673.12548380

      Non-variational initial energy
      ------------------------------

 Total energy =    -682.539696
 1-e energy   =   -2767.334551
 2-e energy   =    1152.307225
 HOMO         =      -0.210745
 LUMO         =       0.009053

   Time after variat. SCF:      5.3
   Time prior to 1st pass:      5.3

 Grid_pts file          = ./Cn1cnc2c1c(=O)n(C)c(=O)n2C pbe0.gridpts.0
 Record size in doubles =  12289        No. of grid_pts per rec  =   3070
 Max. records in memory =    178        Max. recs in file   =   4256545


           Memory utilization after 1st SCF pass: 
           Heap Space remaining (MW):       10.82            10821158
          Stack Space remaining (MW):       13.11            13105220

   convergence    iter        energy       DeltaE   RMS-Dens  Diis-err    time
 ---------------- ----- ----------------- --------- --------- ---------  ------
 d= 0,ls=0.0,diis     1   -679.1081893818 -1.61D+03  3.25D-02  3.65D+00    29.4
 d= 0,ls=0.0,diis     2   -677.4058548660  1.70D+00  2.52D-02  2.04D+01    53.5
 d= 0,ls=0.0,diis     3   -679.5002171261 -2.09D+00  2.92D-03  2.76D-01    76.3
 d= 0,ls=0.0,diis     4   -679.5087124625 -8.50D-03  1.63D-03  1.86D-01    98.6
 d= 0,ls=0.0,diis     5   -679.5270254188 -1.83D-02  4.52D-04  1.15D-02   125.4
  Resetting Diis
 d= 0,ls=0.0,diis     6   -679.5281772549 -1.15D-03  1.36D-04  1.04D-03   152.2
 d= 0,ls=0.0,diis     7   -679.5282847012 -1.07D-04  1.04D-04  9.70D-05   178.8
 d= 0,ls=0.0,diis     8   -679.5282605410  2.42D-05  6.40D-05  3.13D-04   205.5
 d= 0,ls=0.0,diis     9   -679.5282963372 -3.58D-05  9.79D-06  6.12D-06   232.1
 d= 0,ls=0.0,diis    10   -679.5282968480 -5.11D-07  3.28D-06  4.01D-07   258.9


         Total DFT energy =     -679.528296848010
      One electron energy =    -2774.091114813934
           Coulomb energy =     1253.381600655586
    Exchange-Corr. energy =      -91.306412864724
 Nuclear repulsion energy =      932.487630175062

 Numeric. integr. density =      101.999987178583

     Total iterative time =    253.5s



 center of mass
 --------------
 x =  -0.01036425 y =   0.01585356 z =   0.00247081

 moments of inertia (a.u.)
 ------------------
        2518.159623031120          -0.000000000000          -0.000000000000
          -0.000000000000        1686.242487008798          -0.000000000000
          -0.000000000000          -0.000000000000        4168.006507058963

            General Information
            -------------------
          SCF calculation type: DFT
          Wavefunction type:  closed shell.
          No. of atoms     :    24
          No. of electrons :   102
           Alpha electrons :    51
            Beta electrons :    51
          Charge           :     0
          Spin multiplicity:     1
          Use of symmetry is: off; symmetry adaption is: off
          Maximum number of iterations:  30
          This is a Direct SCF calculation.
          AO basis - number of functions:   212
                     number of shells:   128
          Convergence on energy requested:  1.00D-06
          Convergence on density requested:  1.00D-05
          Convergence on gradient requested:  5.00D-04

              XC Information
              --------------
                         PBE0 Method XC Functional
                     Hartree-Fock (Exact) Exchange  0.250          
          PerdewBurkeErnzerhof Exchange Functional  0.750          
            Perdew 1991 LDA Correlation Functional  1.000 local    
           PerdewBurkeErnz. Correlation Functional  1.000 non-local

             Grid Information
             ----------------
          Grid used for XC integration:  medium    
          Radial quadrature: Mura-Knowles        
          Angular quadrature: Lebedev. 
          Tag              B.-S. Rad. Rad. Pts. Rad. Cut. Ang. Pts.
          ---              ---------- --------- --------- ---------
          C                   0.70       49          15.0       434
          N                   0.65       49          14.0       434
          O                   0.60       49          15.0       434
          H                   0.35       45          16.0       434
          Grid pruning is: on 
          Number of quadrature shells:  1136
          Spatial weights used:  Erf1

          Convergence Information
          -----------------------
          Convergence aids based upon iterative change in 
          total energy or number of iterations. 
          Levelshifting, if invoked, occurs when the 
          HOMO/LUMO gap drops below (HL_TOL):  1.00D-02
          DIIS, if invoked, will attempt to extrapolate 
          using up to (NFOCK): 10 stored Fock matrices.

                    Damping( 0%)  Levelshifting(0.5)       DIIS
                  --------------- ------------------- ---------------
          dE  on:    start            ASAP                start   
          dE off:    2 iters         30 iters            30 iters 


      Screening Tolerance Information
      -------------------------------
          Density screening/tol_rho:  1.00D-10
          AO Gaussian exp screening on grid/accAOfunc:  14
          CD Gaussian exp screening on grid/accCDfunc:  20
          XC Gaussian exp screening on grid/accXCfunc:  20
          Schwarz screening/accCoul:  1.00D-08



                            NWChem DFT Gradient Module
                            --------------------------


                            Cn1cnc2c1c(=O)n(C)c(=O)n2C



  charge          =   0.00
  wavefunction    = closed shell



                         DFT ENERGY GRADIENTS

    atom               coordinates                        gradient
                 x          y          z           x          y          z
   1 C       1.999275  -6.150928  -0.052868   -0.011591   0.007056  -0.000150
   2 N       0.022020  -4.229514   0.001340    0.013395   0.033101   0.001088
   3 C      -2.509920  -4.620354  -0.021729    0.025178   0.006468   0.000101
   4 N      -3.868763  -2.442147   0.007384    0.002452   0.025840  -0.000163
   5 C      -2.060366  -0.647272   0.054591    0.020133   0.001344   0.000727
   6 C       0.267054  -1.702959   0.045789   -0.016617  -0.037466  -0.001468
   7 C       2.413634  -0.193526   0.038244   -0.058398   0.021543   0.000242
   8 O       4.584824  -1.177163  -0.009953   -0.004247  -0.006764  -0.000508
   9 N       2.101290   2.388994   0.066465    0.008997   0.005062  -0.003913
  10 C       4.329389   4.053700  -0.011581   -0.009772  -0.010590  -0.003072
  11 C      -0.302894   3.425809   0.018188    0.012175  -0.061547   0.002263
  12 O      -0.569393   5.796752  -0.083929   -0.002206   0.016652  -0.001753
  13 N      -2.413929   1.899596   0.065835    0.003473   0.000974  -0.004331
  14 C      -4.969783   2.978359  -0.029586    0.010329  -0.010324  -0.001689
  15 H       3.234851  -5.943825   1.629779    0.006672   0.000454   0.013601
  16 H       1.155419  -8.072812  -0.032782   -0.001029  -0.015099   0.000118
  17 H       3.145952  -5.936851  -1.796562    0.005725   0.000706  -0.013742
  18 H      -3.371905  -6.474909  -0.067852   -0.004336  -0.004450  -0.000355
  19 H       5.987103   3.158335   0.914467    0.016122   0.002566   0.009513
  20 H       4.809873   4.492052  -2.006474    0.002229   0.001728  -0.012621
  21 H       3.971009   5.845326   1.022455    0.005799   0.013625   0.010456
  22 H      -6.390891   1.645065   0.751395   -0.016062  -0.002945   0.007323
  23 H      -5.470530   3.424179  -2.017707   -0.001781   0.001093  -0.012376
  24 H      -5.076989   4.731237   1.120884   -0.006641   0.010970   0.010710

                 ----------------------------------------
                 |  Time  |  1-e(secs)   |  2-e(secs)   |
                 ----------------------------------------
                 |  CPU   |       0.09   |      33.29   |
                 ----------------------------------------
                 |  WALL  |       0.09   |      33.29   |
                 ----------------------------------------
  no constraints, skipping    0.0000000000000000     

@ Step       Energy      Delta E   Gmax     Grms     Xrms     Xmax   Walltime
@ ---- ---------------- -------- -------- -------- -------- -------- --------
@    0    -679.52829685  0.0D+00  0.03090  0.00811  0.00000  0.00000    319.5
                                                                    



                                Z-matrix (autoz)
                                -------- 

 Units are Angstrom for bonds and degrees for angles

      Type          Name      I     J     K     L     M      Value     Gradient
      ----------- --------  ----- ----- ----- ----- ----- ---------- ----------
    1 Stretch                  1     2                       1.45925    0.00464
    2 Stretch                  1    15                       1.11012    0.01488
    3 Stretch                  1    16                       1.11078    0.01424
    4 Stretch                  1    17                       1.11016    0.01462
    5 Stretch                  2     3                       1.35577   -0.01482
    6 Stretch                  2     6                       1.34347   -0.03090
    7 Stretch                  3     4                       1.35864    0.00335
    8 Stretch                  3    18                       1.08249    0.00587
    9 Stretch                  4     5                       1.34853   -0.02424
   10 Stretch                  5     6                       1.35240   -0.01505
   11 Stretch                  5    13                       1.36068   -0.01713
   12 Stretch                  6     7                       1.38865   -0.02561
   13 Stretch                  7     8                       1.26161   -0.00107
   14 Stretch                  7     9                       1.37665   -0.01789
   15 Stretch                  9    10                       1.47238    0.01578
   16 Stretch                  9    11                       1.38574   -0.01754
   17 Stretch                 10    19                       1.11093    0.01583
   18 Stretch                 10    20                       1.11034    0.01287
   19 Stretch                 10    21                       1.11097    0.01579
   20 Stretch                 11    12                       1.26371    0.01685
   21 Stretch                 11    13                       1.37871   -0.00876
   22 Stretch                 13    14                       1.46891    0.01243
   23 Stretch                 14    22                       1.11091    0.01547
   24 Stretch                 14    23                       1.11028    0.01238
   25 Stretch                 14    24                       1.11098    0.01537
   26 Bend                     1     2     3               127.02267    0.00093
   27 Bend                     1     2     6               128.64937    0.00334
   28 Bend                     2     1    15               109.74035   -0.00108
   29 Bend                     2     1    16               110.45760    0.00408
   30 Bend                     2     1    17               109.70338   -0.00128
   31 Bend                     2     3     4               113.17331   -0.00286
   32 Bend                     2     3    18               123.70650    0.00254
   33 Bend                     2     6     5               108.85954    0.01562
   34 Bend                     2     6     7               130.64199   -0.01031
   35 Bend                     3     2     6               104.32102   -0.00426
   36 Bend                     3     4     5               102.83690   -0.01021
   37 Bend                     4     3    18               123.11955    0.00031
   38 Bend                     4     5     6               110.80880    0.00170
   39 Bend                     4     5    13               126.87959   -0.00454
   40 Bend                     5     6     7               120.48777   -0.00532
   41 Bend                     5    13    11               117.95179   -0.00694
   42 Bend                     5    13    14               120.75632    0.00034
   43 Bend                     6     5    13               122.30230    0.00283
   44 Bend                     6     7     8               120.51025   -0.01361
   45 Bend                     6     7     9               118.21401    0.01724
   46 Bend                     7     9    10               119.83381    0.00559
   47 Bend                     7     9    11               120.20358   -0.01350
   48 Bend                     8     7     9               121.27415   -0.00362
   49 Bend                     9    10    19               111.39398    0.00608
   50 Bend                     9    10    20               109.57467   -0.00243
   51 Bend                     9    10    21               111.10440    0.00447
   52 Bend                     9    11    12               119.75807   -0.00264
   53 Bend                     9    11    13               120.77190    0.00570
   54 Bend                    10     9    11               119.85400    0.00791
   55 Bend                    11    13    14               121.18234    0.00660
   56 Bend                    12    11    13               119.46901   -0.00306
   57 Bend                    13    14    22               111.32657    0.00597
   58 Bend                    13    14    23               109.56657   -0.00265
   59 Bend                    13    14    24               110.64982    0.00287
   60 Bend                    15     1    16               108.63223   -0.00165
   61 Bend                    15     1    17               109.55239    0.00147
   62 Bend                    16     1    17               108.73046   -0.00154
   63 Bend                    19    10    20               109.12715   -0.00132
   64 Bend                    19    10    21               106.34969   -0.00629
   65 Bend                    20    10    21               109.21285   -0.00072
   66 Bend                    22    14    23               109.02017   -0.00139
   67 Bend                    22    14    24               106.96814   -0.00501
   68 Bend                    23    14    24               109.24822    0.00007
   69 Torsion                  1     2     3     4        -179.12747    0.00004
   70 Torsion                  1     2     3    18           0.59119   -0.00004
   71 Torsion                  1     2     6     5         179.22580   -0.00005
   72 Torsion                  1     2     6     7           0.43833    0.00003
   73 Torsion                  2     3     4     5          -0.10130   -0.00001
   74 Torsion                  2     6     5     4          -0.21786   -0.00008
   75 Torsion                  2     6     5    13        -179.17899    0.00029
   76 Torsion                  2     6     7     8          -0.21612    0.00019
   77 Torsion                  2     6     7     9         179.33018    0.00012
   78 Torsion                  3     2     1    15        -122.24747    0.00009
   79 Torsion                  3     2     1    16          -2.50159   -0.00008
   80 Torsion                  3     2     1    17         117.34238   -0.00024
   81 Torsion                  3     2     6     5           0.14225    0.00004
   82 Torsion                  3     2     6     7        -178.64522    0.00012
   83 Torsion                  3     4     5     6           0.19004    0.00001
   84 Torsion                  3     4     5    13         179.09228   -0.00029
   85 Torsion                  4     3     2     6          -0.02393   -0.00001
   86 Torsion                  4     5     6     7         178.71448   -0.00026
   87 Torsion                  4     5    13    11        -177.54172    0.00019
   88 Torsion                  4     5    13    14          -1.30281    0.00027
   89 Torsion                  5     4     3    18        -179.82186    0.00007
   90 Torsion                  5     6     7     8        -178.88456    0.00008
   91 Torsion                  5     6     7     9           0.66174    0.00001
   92 Torsion                  5    13    11     9          -2.69374   -0.00013
   93 Torsion                  5    13    11    12         176.93717   -0.00045
   94 Torsion                  5    13    14    22          25.85986    0.00053
   95 Torsion                  5    13    14    23         -94.80828    0.00018
   96 Torsion                  5    13    14    24         144.67201   -0.00002
   97 Torsion                  6     2     1    15          58.86474    0.00023
   98 Torsion                  6     2     1    16         178.61063    0.00006
   99 Torsion                  6     2     1    17         -61.54540   -0.00010
  100 Torsion                  6     2     3    18         179.69473   -0.00010
  101 Torsion                  6     5    13    11           1.24422   -0.00017
  102 Torsion                  6     5    13    14         177.48313   -0.00008
  103 Torsion                  6     7     9    10        -178.31066   -0.00008
  104 Torsion                  6     7     9    11          -2.10473    0.00010
  105 Torsion                  7     6     5    13          -0.24665    0.00011
  106 Torsion                  7     9    10    19         -30.64736   -0.00092
  107 Torsion                  7     9    10    20          90.20385   -0.00027
  108 Torsion                  7     9    10    21        -149.02467    0.00010
  109 Torsion                  7     9    11    12        -176.44636    0.00015
  110 Torsion                  7     9    11    13           3.18349   -0.00016
  111 Torsion                  8     7     9    10           1.23201   -0.00019
  112 Torsion                  8     7     9    11         177.43794   -0.00002
  113 Torsion                  9    11    13    14        -178.91580    0.00003
  114 Torsion                 10     9    11    12          -0.24120    0.00024
  115 Torsion                 10     9    11    13         179.38865   -0.00008
  116 Torsion                 11     9    10    19         153.13333   -0.00028
  117 Torsion                 11     9    10    20         -86.01546    0.00038
  118 Torsion                 11     9    10    21          34.75602    0.00075
  119 Torsion                 11    13    14    22        -158.02372    0.00009
  120 Torsion                 11    13    14    23          81.30814   -0.00026
  121 Torsion                 11    13    14    24         -39.21157   -0.00045
  122 Torsion                 12    11    13    14           0.71510   -0.00028

 Restricting large step in mode   36 eval= 6.3D-02 step= 3.7D-01 new= 3.0D-01
  no constraints, skipping    0.0000000000000000     
  no constraints, skipping    0.0000000000000000     
  no constraints, skipping    0.0000000000000000     
  no constraints, skipping    0.0000000000000000     
  no constraints, skipping    0.0000000000000000     
  no constraints, skipping    0.0000000000000000     
  no constraints, skipping    0.0000000000000000     
  no constraints, skipping    0.0000000000000000     

                                 NWChem DFT Module
                                 -----------------


                            Cn1cnc2c1c(=O)n(C)c(=O)n2C




 Summary of "ao basis" -> "ao basis" (spherical)
 ------------------------------------------------------------------------------
       Tag                 Description            Shells   Functions and Types
 ---------------- ------------------------------  ------  ---------------------
 C                           6-311G                  7       13   4s3p
 N                           6-311G                  7       13   4s3p
 O                           6-311G                  7       13   4s3p
 H                           6-311G                  3        3   3s


  Caching 1-el integrals 

            General Information
            -------------------
          SCF calculation type: DFT
          Wavefunction type:  closed shell.
          No. of atoms     :    24
          No. of electrons :   102
           Alpha electrons :    51
            Beta electrons :    51
          Charge           :     0
          Spin multiplicity:     1
          Use of symmetry is: off; symmetry adaption is: off
          Maximum number of iterations:  30
          This is a Direct SCF calculation.
          AO basis - number of functions:   212
                     number of shells:   128
          Convergence on energy requested:  1.00D-06
          Convergence on density requested:  1.00D-05
          Convergence on gradient requested:  5.00D-04

              XC Information
              --------------
                         PBE0 Method XC Functional
                     Hartree-Fock (Exact) Exchange  0.250          
          PerdewBurkeErnzerhof Exchange Functional  0.750          
            Perdew 1991 LDA Correlation Functional  1.000 local    
           PerdewBurkeErnz. Correlation Functional  1.000 non-local

             Grid Information
             ----------------
          Grid used for XC integration:  medium    
          Radial quadrature: Mura-Knowles        
          Angular quadrature: Lebedev. 
          Tag              B.-S. Rad. Rad. Pts. Rad. Cut. Ang. Pts.
          ---              ---------- --------- --------- ---------
          C                   0.70       49          16.0       434
          N                   0.65       49          14.0       434
          O                   0.60       49          15.0       434
          H                   0.35       45          16.0       434
          Grid pruning is: on 
          Number of quadrature shells:  1136
          Spatial weights used:  Erf1

          Convergence Information
          -----------------------
          Convergence aids based upon iterative change in 
          total energy or number of iterations. 
          Levelshifting, if invoked, occurs when the 
          HOMO/LUMO gap drops below (HL_TOL):  1.00D-02
          DIIS, if invoked, will attempt to extrapolate 
          using up to (NFOCK): 10 stored Fock matrices.

                    Damping( 0%)  Levelshifting(0.5)       DIIS
                  --------------- ------------------- ---------------
          dE  on:    start            ASAP                start   
          dE off:    2 iters         30 iters            30 iters 


      Screening Tolerance Information
      -------------------------------
          Density screening/tol_rho:  1.00D-10
          AO Gaussian exp screening on grid/accAOfunc:  14
          CD Gaussian exp screening on grid/accCDfunc:  20
          XC Gaussian exp screening on grid/accXCfunc:  20
          Schwarz screening/accCoul:  1.00D-08


 Loading old vectors from job with title :

Cn1cnc2c1c(=O)n(C)c(=O)n2C

   Time after variat. SCF:    319.8
   Time prior to 1st pass:    319.8

 Grid_pts file          = ./Cn1cnc2c1c(=O)n(C)c(=O)n2C pbe0.gridpts.0
 Record size in doubles =  12289        No. of grid_pts per rec  =   3070
 Max. records in memory =    178        Max. recs in file   =   4256545


           Memory utilization after 1st SCF pass: 
           Heap Space remaining (MW):       10.82            10821158
          Stack Space remaining (MW):       13.11            13105220

   convergence    iter        energy       DeltaE   RMS-Dens  Diis-err    time
 ---------------- ----- ----------------- --------- --------- ---------  ------
 d= 0,ls=0.0,diis     1   -679.5346955076 -1.61D+03  3.51D-03  6.87D-02   348.0
 d= 0,ls=0.0,diis     2   -679.5408204732 -6.12D-03  1.43D-03  4.14D-02   374.0
 d= 0,ls=0.0,diis     3   -679.5418535494 -1.03D-03  8.70D-04  3.22D-02   401.1
 d= 0,ls=0.0,diis     4   -679.5448200811 -2.97D-03  1.49D-04  2.04D-03   429.4
 d= 0,ls=0.0,diis     5   -679.5450384275 -2.18D-04  4.38D-05  5.91D-05   458.1
 d= 0,ls=0.0,diis     6   -679.5450441794 -5.75D-06  1.60D-05  1.56D-05   488.0
 d= 0,ls=0.0,diis     7   -679.5450459042 -1.72D-06  4.46D-06  1.40D-06   522.1
 d= 0,ls=0.0,diis     8   -679.5450460618 -1.58D-07  1.21D-06  5.89D-08   552.9


         Total DFT energy =     -679.545046061828
      One electron energy =    -2762.640059117799
           Coulomb energy =     1247.590488291653
    Exchange-Corr. energy =      -91.307261390014
 Nuclear repulsion energy =      926.811786154332

 Numeric. integr. density =      101.999980368604

     Total iterative time =    233.1s



 center of mass
 --------------
 x =   0.01971040 y =   0.02486458 z =  -0.00068399

 moments of inertia (a.u.)
 ------------------
        2570.063073734143         -14.446739798435          -0.721310856659
         -14.446739798435        1703.628207082898           1.481412945375
          -0.721310856659           1.481412945375        4239.125370534006
 Line search: 
     step= 1.00 grad=-3.6D-02 hess= 1.9D-02 energy=   -679.545046 mode=accept  
 new step= 1.00                   predicted energy=   -679.545046
  no constraints, skipping    0.0000000000000000     
  no constraints, skipping    0.0000000000000000     
  no constraints, skipping    0.0000000000000000     
  no constraints, skipping    0.0000000000000000     
  no constraints, skipping    0.0000000000000000     
  no constraints, skipping    0.0000000000000000     
  no constraints, skipping    0.0000000000000000     
  no constraints, skipping    0.0000000000000000     

          --------
          Step   1
          --------


                Geometry "geometry" -> "Cn1cnc2c1c(=O)n(C)c(=O)n2C"
                ---------------------------------------------------

 Output coordinates in angstroms (scale by  1.889725989 to convert to a.u.)

  No.       Tag          Charge          X              Y              Z
 ---- ---------------- ---------- -------------- -------------- --------------
    1 C                    6.0000     1.02541197    -3.29286308    -0.02532162
    2 N                    7.0000    -0.00283409    -2.26716185     0.00010015
    3 C                    6.0000    -1.35288710    -2.47908863    -0.00990014
    4 N                    7.0000    -2.04350395    -1.32867123     0.00253062
    5 C                    6.0000    -1.07324371    -0.35390025     0.02304571
    6 C                    6.0000     0.19765393    -0.89403243     0.02043428
    7 C                    6.0000     1.38039921    -0.10468523     0.01595009
    8 O                    8.0000     2.56235398    -0.54865207    -0.00385972
    9 N                    7.0000     1.10976344     1.26946996     0.02986927
   10 C                    6.0000     2.23841379     2.17749661    -0.00869980
   11 C                    6.0000    -0.16589135     1.85485223     0.00430911
   12 O                    8.0000    -0.30567480     3.09194905    -0.04065316
   13 N                    7.0000    -1.26295241     1.01211033     0.02896149
   14 C                    6.0000    -2.59149636     1.59275026    -0.01905323
   15 H                    1.0000     1.67462995    -3.19777479     0.84064538
   16 H                    1.0000     0.53647492    -4.26484335    -0.01039242
   17 H                    1.0000     1.62951704    -3.20137292    -0.92426416
   18 H                    1.0000    -1.80234652    -3.45395219    -0.02886423
   19 H                    1.0000     3.07851045     1.68784283     0.47430096
   20 H                    1.0000     2.49866672     2.42862364    -1.03682949
   21 H                    1.0000     1.97338796     3.08182607     0.53075715
   22 H                    1.0000    -3.28908527     0.86735804     0.38988859
   23 H                    1.0000    -2.87326159     1.83893563    -1.04345869
   24 H                    1.0000    -2.60418744     2.49785849     0.58189715

      Atomic Mass 
      ----------- 

      C                 12.000000
      N                 14.003070
      O                 15.994910
      H                  1.007825


 Effective nuclear repulsion energy (a.u.)     926.8117861543

            Nuclear Dipole moment (a.u.) 
            ----------------------------
        X                 Y               Z
 ---------------- ---------------- ----------------
     2.7008205928     0.8206791598    -0.2789342695


                                 NWChem DFT Module
                                 -----------------


                            Cn1cnc2c1c(=O)n(C)c(=O)n2C




 Summary of "ao basis" -> "ao basis" (spherical)
 ------------------------------------------------------------------------------
       Tag                 Description            Shells   Functions and Types
 ---------------- ------------------------------  ------  ---------------------
 C                           6-311G                  7       13   4s3p
 N                           6-311G                  7       13   4s3p
 O                           6-311G                  7       13   4s3p
 H                           6-311G                  3        3   3s



  The DFT is already converged 

         Total DFT energy =   -679.545046061828


            General Information
            -------------------
          SCF calculation type: DFT
          Wavefunction type:  closed shell.
          No. of atoms     :    24
          No. of electrons :   102
           Alpha electrons :    51
            Beta electrons :    51
          Charge           :     0
          Spin multiplicity:     1
          Use of symmetry is: off; symmetry adaption is: off
          Maximum number of iterations:  30
          This is a Direct SCF calculation.
          AO basis - number of functions:   212
                     number of shells:   128
          Convergence on energy requested:  1.00D-06
          Convergence on density requested:  1.00D-05
          Convergence on gradient requested:  5.00D-04

              XC Information
              --------------
                         PBE0 Method XC Functional
                     Hartree-Fock (Exact) Exchange  0.250          
          PerdewBurkeErnzerhof Exchange Functional  0.750          
            Perdew 1991 LDA Correlation Functional  1.000 local    
           PerdewBurkeErnz. Correlation Functional  1.000 non-local

             Grid Information
             ----------------
          Grid used for XC integration:  medium    
          Radial quadrature: Mura-Knowles        
          Angular quadrature: Lebedev. 
          Tag              B.-S. Rad. Rad. Pts. Rad. Cut. Ang. Pts.
          ---              ---------- --------- --------- ---------
          C                   0.70       49          16.0       434
          N                   0.65       49          14.0       434
          O                   0.60       49          15.0       434
          H                   0.35       45          16.0       434
          Grid pruning is: on 
          Number of quadrature shells:  1136
          Spatial weights used:  Erf1

          Convergence Information
          -----------------------
          Convergence aids based upon iterative change in 
          total energy or number of iterations. 
          Levelshifting, if invoked, occurs when the 
          HOMO/LUMO gap drops below (HL_TOL):  1.00D-02
          DIIS, if invoked, will attempt to extrapolate 
          using up to (NFOCK): 10 stored Fock matrices.

                    Damping( 0%)  Levelshifting(0.5)       DIIS
                  --------------- ------------------- ---------------
          dE  on:    start            ASAP                start   
          dE off:    2 iters         30 iters            30 iters 


      Screening Tolerance Information
      -------------------------------
          Density screening/tol_rho:  1.00D-10
          AO Gaussian exp screening on grid/accAOfunc:  14
          CD Gaussian exp screening on grid/accCDfunc:  20
          XC Gaussian exp screening on grid/accXCfunc:  20
          Schwarz screening/accCoul:  1.00D-08



                            NWChem DFT Gradient Module
                            --------------------------


                            Cn1cnc2c1c(=O)n(C)c(=O)n2C



  charge          =   0.00
  wavefunction    = closed shell



                         DFT ENERGY GRADIENTS

    atom               coordinates                        gradient
                 x          y          z           x          y          z
   1 C       1.937748  -6.222609  -0.047851   -0.000626   0.000592  -0.000238
   2 N      -0.005356  -4.284315   0.000189    0.001645   0.006595   0.000524
   3 C      -2.556586  -4.684798  -0.018709   -0.005262  -0.012526  -0.000378
   4 N      -3.861663  -2.510825   0.004782   -0.003702  -0.005056  -0.000563
   5 C      -2.028137  -0.668774   0.043550    0.002660  -0.001715   0.000947
   6 C       0.373512  -1.689476   0.038615    0.008002   0.002485  -0.000250
   7 C       2.608576  -0.197826   0.030141   -0.016350   0.010280  -0.000013
   8 O       4.842147  -1.036802  -0.007294    0.013927  -0.005527  -0.000511
   9 N       2.097149   2.398950   0.056445    0.009413   0.005997   0.001304
  10 C       4.229989   4.114872  -0.016440   -0.005888  -0.004455  -0.004529
  11 C      -0.313489   3.505162   0.008143    0.000902  -0.007123   0.000910
  12 O      -0.577642   5.842936  -0.076823   -0.000555   0.002108  -0.000763
  13 N      -2.386634   1.912611   0.054729   -0.004067   0.009014   0.000155
  14 C      -4.897218   3.009862  -0.036005    0.004727  -0.000495  -0.002578
  15 H       3.164592  -6.042918   1.588589   -0.000825  -0.000075  -0.000244
  16 H       1.013791  -8.059385  -0.019639   -0.000626   0.000212   0.000046
  17 H       3.079341  -6.049718  -1.746606   -0.000795  -0.000047   0.000242
  18 H      -3.405941  -6.527023  -0.054545   -0.001448   0.001079  -0.000141
  19 H       5.817541   3.189560   0.896299   -0.001108   0.000664   0.002121
  20 H       4.721795   4.589433  -1.959324   -0.000818  -0.000719  -0.000165
  21 H       3.729163   5.823807   1.002986    0.000221  -0.000875   0.001867
  22 H      -6.215470   1.639069   0.736783    0.000684   0.000678   0.001330
  23 H      -5.429677   3.475084  -1.971851    0.000370  -0.000392  -0.000266
  24 H      -4.921201   4.720268   1.099626   -0.000481  -0.000701   0.001194

                 ----------------------------------------
                 |  Time  |  1-e(secs)   |  2-e(secs)   |
                 ----------------------------------------
                 |  CPU   |       0.11   |      40.32   |
                 ----------------------------------------
                 |  WALL  |       0.11   |      40.34   |
                 ----------------------------------------
  no constraints, skipping    0.0000000000000000     

  Step       Energy      Delta E   Gmax     Grms     Xrms     Xmax   Walltime
  ---- ---------------- -------- -------- -------- -------- -------- --------
@    1    -679.54504606 -1.7D-02  0.01499  0.00219  0.07577  0.25323    623.6
                                                                    



                                Z-matrix (autoz)
                                -------- 

 Units are Angstrom for bonds and degrees for angles

      Type          Name      I     J     K     L     M      Value     Gradient
      ----------- --------  ----- ----- ----- ----- ----- ---------- ----------
    1 Stretch                  1     2                       1.45258   -0.00251
    2 Stretch                  1    15                       1.08647   -0.00069
    3 Stretch                  1    16                       1.08813    0.00009
    4 Stretch                  1    17                       1.08693   -0.00065
    5 Stretch                  2     3                       1.36662    0.00608
    6 Stretch                  2     6                       1.38784    0.00328
    7 Stretch                  3     4                       1.34185    0.00039
    8 Stretch                  3    18                       1.07365   -0.00037
    9 Stretch                  4     5                       1.37550    0.00889
   10 Stretch                  5     6                       1.38092    0.00018
   11 Stretch                  5    13                       1.37913    0.00484
   12 Stretch                  6     7                       1.42196    0.00144
   13 Stretch                  7     8                       1.26274    0.01499
   14 Stretch                  7     9                       1.40062   -0.00173
   15 Stretch                  9    10                       1.44909   -0.00927
   16 Stretch                  9    11                       1.40379   -0.00091
   17 Stretch                 10    19                       1.08573   -0.00021
   18 Stretch                 10    20                       1.08988   -0.00021
   19 Stretch                 10    21                       1.08585    0.00014
   20 Stretch                 11    12                       1.24578    0.00218
   21 Stretch                 11    13                       1.38361   -0.00163
   22 Stretch                 13    14                       1.45068   -0.00521
   23 Stretch                 14    22                       1.08630   -0.00039
   24 Stretch                 14    23                       1.09060    0.00007
   25 Stretch                 14    24                       1.08652    0.00008
   26 Bend                     1     2     3               126.13308   -0.00323
   27 Bend                     1     2     6               126.62927   -0.00034
   28 Bend                     2     1    15               110.31849   -0.00008
   29 Bend                     2     1    16               108.20601   -0.00053
   30 Bend                     2     1    17               110.39364   -0.00009
   31 Bend                     2     3     4               112.05007   -0.00295
   32 Bend                     2     3    18               123.67521    0.00242
   33 Bend                     2     6     5               104.71857   -0.00170
   34 Bend                     2     6     7               132.01616    0.00193
   35 Bend                     3     2     6               107.23229    0.00357
   36 Bend                     3     4     5               104.16164    0.00011
   37 Bend                     4     3    18               124.27441    0.00053
   38 Bend                     4     5     6               111.83727    0.00097
   39 Bend                     4     5    13               127.22569    0.00178
   40 Bend                     5     6     7               123.25606   -0.00023
   41 Bend                     5    13    11               119.61374   -0.00055
   42 Bend                     5    13    14               121.48516    0.00095
   43 Bend                     6     5    13               120.93223   -0.00275
   44 Bend                     6     7     8               125.69242   -0.00086
   45 Bend                     6     7     9               112.57370    0.00136
   46 Bend                     7     9    10               117.64665    0.00040
   47 Bend                     7     9    11               125.76978    0.00003
   48 Bend                     8     7     9               121.73326   -0.00050
   49 Bend                     9    10    19               107.95197   -0.00034
   50 Bend                     9    10    20               110.82272   -0.00036
   51 Bend                     9    10    21               108.57500   -0.00040
   52 Bend                     9    11    12               121.11223   -0.00087
   53 Bend                     9    11    13               117.78857    0.00214
   54 Bend                    10     9    11               116.48677   -0.00045
   55 Bend                    11    13    14               118.80060   -0.00041
   56 Bend                    12    11    13               121.09915   -0.00126
   57 Bend                    13    14    22               107.96087   -0.00033
   58 Bend                    13    14    23               110.98026   -0.00015
   59 Bend                    13    14    24               109.01499    0.00009
   60 Bend                    15     1    16               109.61766    0.00017
   61 Bend                    15     1    17               108.64579    0.00033
   62 Bend                    16     1    17               109.64997    0.00019
   63 Bend                    19    10    20               109.80408    0.00085
   64 Bend                    19    10    21               110.08674   -0.00059
   65 Bend                    20    10    21               109.57505    0.00080
   66 Bend                    22    14    23               109.78132    0.00046
   67 Bend                    22    14    24               109.91058   -0.00052
   68 Bend                    23    14    24               109.17563    0.00043
   69 Torsion                  1     2     3     4        -179.19465    0.00007
   70 Torsion                  1     2     3    18           0.61108   -0.00001
   71 Torsion                  1     2     6     5         179.26603   -0.00006
   72 Torsion                  1     2     6     7           0.37419    0.00004
   73 Torsion                  2     3     4     5          -0.08007   -0.00003
   74 Torsion                  2     6     5     4          -0.12454   -0.00008
   75 Torsion                  2     6     5    13        -179.38206    0.00015
   76 Torsion                  2     6     7     8          -0.31582    0.00003
   77 Torsion                  2     6     7     9         179.39896   -0.00017
   78 Torsion                  3     2     1    15        -122.32116    0.00011
   79 Torsion                  3     2     1    16          -2.40908   -0.00005
   80 Torsion                  3     2     1    17         117.58703   -0.00019
   81 Torsion                  3     2     6     5           0.07010    0.00006
   82 Torsion                  3     2     6     7        -178.82174    0.00016
   83 Torsion                  3     4     5     6           0.12739    0.00008
   84 Torsion                  3     4     5    13         179.32754   -0.00021
   85 Torsion                  4     3     2     6           0.00640   -0.00001
   86 Torsion                  4     5     6     7         178.89091   -0.00014
   87 Torsion                  4     5    13    11        -177.79940    0.00020
   88 Torsion                  4     5    13    14          -1.48847    0.00006
   89 Torsion                  5     4     3    18        -179.88442    0.00004
   90 Torsion                  5     6     7     8        -179.03409    0.00015
   91 Torsion                  5     6     7     9           0.68069   -0.00005
   92 Torsion                  5    13    11     9          -2.58087   -0.00001
   93 Torsion                  5    13    11    12         177.33711   -0.00023
[...]
      2         0.0174     -0.0393      0.9991
      3         0.9998      0.0060     -0.0171



      Atom:    6  C 
        Diamagnetic
    263.8181      2.2669      0.1759
      2.2669    267.3940     -0.7842
      0.1759     -0.7842    221.6066

        Paramagnetic
   -209.7318     -6.5317     -0.5926
     -6.5317   -223.3375      2.5468
     -0.5926      2.5468    -76.6424

        Total Shielding Tensor
     54.0863     -4.2648     -0.4168
     -4.2648     44.0565      1.7626
     -0.4168      1.7626    144.9642

           isotropic =      81.0357
          anisotropy =      95.9430

          Principal Components and Axis System
                 1           2           3
              144.9976     55.6434     42.4660

      1        -0.0054      0.9389      0.3440
      2         0.0177     -0.3439      0.9388
      3         0.9998      0.0112     -0.0147



      Atom:    7  C 
        Diamagnetic
    260.8984     -2.8371      0.2529
     -2.8371    259.9862     -0.5875
      0.2529     -0.5875    226.3274

        Paramagnetic
   -218.2136    -17.6957     -0.3011
    -17.6957   -310.0793      3.2170
     -0.3011      3.2170   -116.6060

        Total Shielding Tensor
     42.6848    -20.5327     -0.0481
    -20.5327    -50.0931      2.6295
     -0.0481      2.6295    109.7213

           isotropic =      34.1044
          anisotropy =     113.4938

          Principal Components and Axis System
                 1           2           3
              109.7669    -54.4741     47.0203

      1        -0.0060      0.2067      0.9784
      2         0.0172      0.9783     -0.2066
      3         0.9998     -0.0156      0.0094



      Atom:    8  O 
        Diamagnetic
    422.6021    -12.6787      0.3403
    -12.6787    399.4061     -0.0315
      0.3403     -0.0315    401.9576

        Paramagnetic
   -707.6356    109.1682     -5.4963
    109.1682   -584.1510      9.7376
     -5.4963      9.7376    -53.2778

        Total Shielding Tensor
   -285.0335     96.4895     -5.1560
     96.4895   -184.7449      9.7061
     -5.1560      9.7061    348.6797

           isotropic =     -40.3662
          anisotropy =     583.8619

          Principal Components and Axis System
                 1           2           3
              348.8750   -343.7594   -126.2143

      1        -0.0055      0.8545      0.5195
      2         0.0172     -0.5193      0.8544
      3         0.9998      0.0136     -0.0118



      Atom:    9  N 
        Diamagnetic
    348.0513      2.6283      0.1307
      2.6283    345.7901     -0.4919
      0.1307     -0.4919    316.7557

        Paramagnetic
   -320.9714    -44.1017     -0.0892
    -44.1017   -272.0645      1.7389
     -0.0892      1.7389   -159.0682

        Total Shielding Tensor
     27.0799    -41.4734      0.0414
    -41.4734     73.7256      1.2470
      0.0414      1.2470    157.6876

           isotropic =      86.1644
          anisotropy =     107.3170

          Principal Components and Axis System
                 1           2           3
              157.7091     97.9656      2.8184

      1        -0.0052     -0.5049      0.8632
      2         0.0174      0.8630      0.5049
      3         0.9998     -0.0177     -0.0043



      Atom:   10  C 
        Diamagnetic
    257.4262     14.0065     -0.1422
     14.0065    252.7833     -0.1483
     -0.1422     -0.1483    239.8344

        Paramagnetic
    -85.2848     10.6317     -0.2708
     10.6317    -91.5648      0.4034
     -0.2708      0.4034    -70.9163

        Total Shielding Tensor
    172.1414     24.6382     -0.4130
     24.6382    161.2185      0.2551
     -0.4130      0.2551    168.9181

           isotropic =     167.4260
          anisotropy =      36.7370

          Principal Components and Axis System
                 1           2           3
              191.9173    168.9245    141.4361

      1         0.7799     -0.0049     -0.6259
      2         0.6259      0.0174      0.7797
      3        -0.0071      0.9998     -0.0166



      Atom:   11  C 
        Diamagnetic
    261.0845      0.5121      0.1819
      0.5121    262.4742     -0.6378
      0.1819     -0.6378    225.3944

        Paramagnetic
   -302.0385     -4.7537     -0.8077
     -4.7537   -205.7116      1.2599
     -0.8077      1.2599   -132.1973

        Total Shielding Tensor
    -40.9539     -4.2416     -0.6258
     -4.2416     56.7626      0.6221
     -0.6258      0.6221     93.1971

           isotropic =      36.3353
          anisotropy =      85.3141

          Principal Components and Axis System
                 1           2           3
               93.2113     56.9348    -41.1403

      1        -0.0052     -0.0432      0.9991
      2         0.0177      0.9989      0.0433
      3         0.9998     -0.0179      0.0045



      Atom:   12  O 
        Diamagnetic
    392.1248     -3.1507      0.0352
     -3.1507    423.6222     -0.5001
      0.0352     -0.5001    395.8529

        Paramagnetic
   -492.5922     23.4512     -2.5125
     23.4512   -667.6064     10.3760
     -2.5125     10.3760    -82.7021

        Total Shielding Tensor
   -100.4674     20.3005     -2.4773
     20.3005   -243.9841      9.8759
     -2.4773      9.8759    313.1507

           isotropic =     -10.4336
          anisotropy =     485.6553

          Principal Components and Axis System
                 1           2           3
              313.3366   -246.9833    -97.6541

      1        -0.0051     -0.1375      0.9905
      2         0.0175      0.9903      0.1376
      3         0.9998     -0.0181      0.0027



      Atom:   13  N 
        Diamagnetic
    343.2637     -1.4896      0.1783
     -1.4896    347.4347     -0.5859
      0.1783     -0.5859    314.6777

        Paramagnetic
   -252.9629     55.1384     -1.5544
     55.1384   -252.4264      2.3678
     -1.5544      2.3678   -132.6381

        Total Shielding Tensor
     90.3009     53.6488     -1.3761
     53.6488     95.0082      1.7819
     -1.3761      1.7819    182.0397

           isotropic =     122.4496
          anisotropy =      89.4418

          Principal Components and Axis System
                 1           2           3
              182.0775    146.3518     38.9195

      1        -0.0047      0.6915      0.7223
      2         0.0175      0.7223     -0.6914
      3         0.9998     -0.0094      0.0156



      Atom:   14  C 
        Diamagnetic
    264.4691    -10.3014      0.3020
    -10.3014    246.6468     -0.1412
      0.3020     -0.1412    241.3126

        Paramagnetic
    -77.9049     -7.7936      0.1531
     -7.7936    -97.0520      0.1977
      0.1531      0.1977    -83.2135

        Total Shielding Tensor
    186.5642    -18.0951      0.4551
    -18.0951    149.5948      0.0565
      0.4551      0.0565    158.0991

           isotropic =     164.7527
          anisotropy =      43.7978

          Principal Components and Axis System
                 1           2           3
              193.9512    158.0978    142.2090

      1         0.9259     -0.0050      0.3778
      2        -0.3777      0.0173      0.9258
      3         0.0112      0.9998     -0.0141



      Atom:   15  H 
        Diamagnetic
     30.6567     -2.8905      8.3443
     -2.8905     26.3940     -1.5657
      8.3443     -1.5657     29.3368

        Paramagnetic
     -0.5181      0.3842     -3.4812
      0.3842      2.1313      0.1835
     -3.4812      0.1835     -2.1822

        Total Shielding Tensor
     30.1386     -2.5063      4.8630
     -2.5063     28.5253     -1.3822
      4.8630     -1.3822     27.1546

           isotropic =      28.6062
          anisotropy =       9.5642

          Principal Components and Axis System
                 1           2           3
               34.9823     27.3103     23.5259

      1         0.7439      0.2689     -0.6119
      2        -0.4029      0.9109     -0.0894
      3         0.5333      0.3130      0.7859



      Atom:   16  H 
        Diamagnetic
     25.7706      0.9680     -0.0426
      0.9680     40.8222     -0.5310
     -0.0426     -0.5310     20.4490

        Paramagnetic
      2.3756     -1.4069      0.0497
     -1.4069     -6.1772      0.2389
      0.0497      0.2389      2.8424

        Total Shielding Tensor
     28.1462     -0.4389      0.0072
     -0.4389     34.6450     -0.2921
      0.0072     -0.2921     23.2914

           isotropic =      28.6942
          anisotropy =       8.9817

          Principal Components and Axis System
                 1           2           3
               34.6820     28.1168     23.2839

      1        -0.0670      0.9978      0.0009
      2         0.9974      0.0670      0.0257
      3        -0.0256     -0.0026      0.9997



      Atom:   17  H 
        Diamagnetic
     30.5077     -3.3270     -8.1954
     -3.3270     26.4665      1.8280
     -8.1954      1.8280     29.4142

        Paramagnetic
     -0.4170      0.5565      3.4612
      0.5565      2.1194     -0.4159
      3.4612     -0.4159     -2.2115

        Total Shielding Tensor
     30.0907     -2.7705     -4.7341
     -2.7705     28.5859      1.4121
     -4.7341      1.4121     27.2027

           isotropic =      28.6265
          anisotropy =       9.6433

          Principal Components and Axis System
                 1           2           3
               35.0553     27.1926     23.6314

      1         0.7371      0.2659      0.6212
      2        -0.4295      0.8941      0.1270
      3        -0.5216     -0.3604      0.7733



      Atom:   18  H 
        Diamagnetic
     28.3380      8.1070     -0.0911
      8.1070     39.5875     -0.3262
     -0.0911     -0.3262     18.5388

        Paramagnetic
     -1.6555     -6.9753      0.0936
     -6.9753    -13.0572      0.2420
      0.0936      0.2420      2.9594

        Total Shielding Tensor
     26.6825      1.1317      0.0025
      1.1317     26.5303     -0.0843
      0.0025     -0.0843     21.4981

           isotropic =      24.9036
          anisotropy =       4.2563

          Principal Components and Axis System
                 1           2           3
               27.7412     25.4731     21.4966

      1         0.7303     -0.6832     -0.0044
      2         0.6831      0.7301      0.0177
      3        -0.0089     -0.0159      0.9998



      Atom:   19  H 
        Diamagnetic
     37.3410     -1.1912      0.1198
     -1.1912     28.8852     -0.1819
      0.1198     -0.1819     18.6723

        Paramagnetic
     -4.1003      0.9876     -0.0569
      0.9876      1.1430      0.0371
     -0.0569      0.0371      3.0740

        Total Shielding Tensor
     33.2406     -0.2036      0.0629
     -0.2036     30.0282     -0.1449
      0.0629     -0.1449     21.7462

           isotropic =      28.3384
          anisotropy =       7.3733

          Principal Components and Axis System
                 1           2           3
               33.2539     30.0177     21.7434

      1         0.9980      0.0634     -0.0052
      2        -0.0633      0.9978      0.0174
      3         0.0063     -0.0170      0.9998



      Atom:   20  H 
        Diamagnetic
     26.6298      4.4816     -2.4405
      4.4816     30.7000     -8.3604
     -2.4405     -8.3604     30.0771

        Paramagnetic
      2.1894     -1.2812      0.6417
     -1.2812     -0.7165      3.1870
      0.6417      3.1870      0.1751

        Total Shielding Tensor
     28.8192      3.2004     -1.7988
      3.2004     29.9835     -5.1733
     -1.7988     -5.1733     30.2522

           isotropic =      29.6850
          anisotropy =      10.7537

          Principal Components and Axis System
                 1           2           3
               36.8541     27.6085     24.5924

      1        -0.4050      0.8571     -0.3184
      2        -0.6628     -0.0354      0.7479
      3         0.6298      0.5140      0.5824



      Atom:   21  H 
        Diamagnetic
     26.5721      4.4727      2.2585
      4.4727     31.2622      8.3678
      2.2585      8.3678     29.5580

        Paramagnetic
      2.2033     -1.2678     -0.5816
     -1.2678     -0.9291     -3.1632
     -0.5816     -3.1632      0.3769

        Total Shielding Tensor
     28.7753      3.2049      1.6769
      3.2049     30.3331      5.2046
      1.6769      5.2046     29.9349

           isotropic =      29.6811
          anisotropy =      10.7551

          Principal Components and Axis System
                 1           2           3
               36.8512     27.6023     24.5899

      1         0.3983      0.8623      0.3126
      2         0.6839     -0.0521     -0.7277
      3         0.6112     -0.5037      0.6105



      Atom:   22  H 
        Diamagnetic
     36.8343      3.6633     -0.0041
      3.6633     31.2281     -0.1884
     -0.0041     -0.1884     20.2273

        Paramagnetic
     -2.9924     -2.3691      0.0278
     -2.3691     -0.8778      0.0324
      0.0278      0.0324      1.1564

        Total Shielding Tensor
     33.8420      1.2942      0.0237
      1.2942     30.3503     -0.1560
      0.0237     -0.1560     21.3836

           isotropic =      28.5253
          anisotropy =       8.6162

          Principal Components and Axis System
                 1           2           3
               34.2694     29.9257     21.3808

      1         0.9495     -0.3136     -0.0038
      2         0.3136      0.9494      0.0179
      3        -0.0021     -0.0182      0.9998



      Atom:   23  H 
        Diamagnetic
     29.0247     -4.6539      4.4956
     -4.6539     28.7167     -7.4050
      4.4956     -7.4050     30.9834

        Paramagnetic
      1.3928      1.5424     -1.3966
      1.5424     -0.5214      2.9931
     -1.3966      2.9931     -1.5400

        Total Shielding Tensor
     30.4176     -3.1116      3.0989
     -3.1116     28.1954     -4.4119
      3.0989     -4.4119     29.4434

           isotropic =      29.3521
          anisotropy =      10.6565

          Principal Components and Axis System
                 1           2           3
               36.4564     27.2619     24.3380

      1         0.5876      0.8052      0.0803
      2        -0.5421      0.3180      0.7778
      3         0.6007     -0.5006      0.6234



      Atom:   24  H 
        Diamagnetic
     29.1163     -4.8815     -4.3153
     -4.8815     29.2932      7.4287
     -4.3153      7.4287     30.3280

        Paramagnetic
      1.3675      1.6257      1.3566
      1.6257     -0.7582     -3.0118
      1.3566     -3.0118     -1.2833

        Total Shielding Tensor
     30.4839     -3.2558     -2.9586
     -3.2558     28.5351      4.4169
     -2.9586      4.4169     29.0447

           isotropic =      29.3545
          anisotropy =      10.6375

          Principal Components and Axis System
                 1           2           3
               36.4462     27.2803     24.3371

      1        -0.5931      0.8007      0.0842
      2         0.5646      0.3390      0.7525
      3         0.5740      0.4939     -0.6531




 Task  times  cpu:     1628.6s     wall:     1629.0s


                                NWChem Input Module
                                -------------------


 Summary of allocated global arrays
-----------------------------------
  No active global arrays



                         GA Statistics for process    0
                         ------------------------------

       create   destroy   get      put      acc     scatter   gather  read&inc
calls: 1.14e+04 1.09e+04 2.88e+08 2.33e+05 8.49e+07  943        0     6.58e+05 
number of processes/call 0.00e+00 0.00e+00 0.00e+00 0.00e+00 0.00e+00
bytes total:             5.28e+10 2.33e+09 2.22e+10 3.60e+05 0.00e+00 5.26e+06
bytes remote:            0.00e+00 0.00e+00 0.00e+00 0.00e+00 0.00e+00 0.00e+00
Max memory consumed for GA by this process: 80899200 bytes

MA_summarize_allocated_blocks: starting scan ...
MA_summarize_allocated_blocks: scan completed: 0 heap blocks, 0 stack blocks
MA usage statistics:

	allocation statistics:
					      heap	     stack
					      ----	     -----
	current number of blocks	         0	         0
	maximum number of blocks	        29	        53
	current total bytes		         0	         0
	maximum total bytes		  33740232	  61584888
	maximum total K-bytes		     33741	     61585
	maximum total M-bytes		        34	        62


                                     CITATION
                                     --------
                Please cite the following reference when publishing
                           results obtained with NWChem:

          E. Apr, E. J. Bylaska, W. A. de Jong, N. Govind, K. Kowalski,
       T. P. Straatsma, M. Valiev, H. J. J. van Dam, Y. Alexeev, J. Anchell,
       V. Anisimov, F. W. Aquino, R. Atta-Fynn, J. Autschbach, N. P. Bauman,
     J. C. Becca, D. E. Bernholdt, K. Bhaskaran-Nair, S. Bogatko, P. Borowski,
        J. Boschen, J. Brabec, A. Bruner, E. Caut, Y. Chen, G. N. Chuev,
      C. J. Cramer, J. Daily, M. J. O. Deegan, T. H. Dunning Jr., M. Dupuis,
   K. G. Dyall, G. I. Fann, S. A. Fischer, A. Fonari, H. Frchtl, L. Gagliardi,
      J. Garza, N. Gawande, S. Ghosh, K. Glaesemann, A. W. Gtz, J. Hammond,
       V. Helms, E. D. Hermes, K. Hirao, S. Hirata, M. Jacquelin, L. Jensen,
   B. G. Johnson, H. Jnsson, R. A. Kendall, M. Klemm, R. Kobayashi, V. Konkov,
      S. Krishnamoorthy, M. Krishnan, Z. Lin, R. D. Lins, R. J. Littlefield,
      A. J. Logsdail, K. Lopata, W. Ma, A. V. Marenich, J. Martin del Campo,
   D. Mejia-Rodriguez, J. E. Moore, J. M. Mullin, T. Nakajima, D. R. Nascimento,
    J. A. Nichols, P. J. Nichols, J. Nieplocha, A. Otero-de-la-Roza, B. Palmer,
    A. Panyala, T. Pirojsirikul, B. Peng, R. Peverati, J. Pittner, L. Pollack,
   R. M. Richard, P. Sadayappan, G. C. Schatz, W. A. Shelton, D. W. Silverstein,
   D. M. A. Smith, T. A. Soares, D. Song, M. Swart, H. L. Taylor, G. S. Thomas,
            V. Tipparaju, D. G. Truhlar, K. Tsemekhman, T. Van Voorhis,
     . Vzquez-Mayagoitia, P. Verma, O. Villa, A. Vishnu, K. D. Vogiatzis,
        D. Wang, J. H. Weare, M. J. Williamson, T. L. Windus, K. Woliski,
        A. T. Wong, Q. Wu, C. Yang, Q. Yu, M. Zacharias, Z. Zhang, Y. Zhao,
                                and R. J. Harrison
                        "NWChem: Past, present, and future
                         J. Chem. Phys. 152, 184102 (2020)
                               doi:10.1063/5.0004997

                                      AUTHORS
                                      -------
     E. Apra, E. J. Bylaska, N. Govind, K. Kowalski, M. Valiev, W. A. de Jong,
      T. P. Straatsma, H. J. J. van Dam, D. Wang, T. L. Windus, N. P. Bauman,
       A. Panyala, J. Hammond, J. Autschbach, K. Bhaskaran-Nair, J. Brabec,
    K. Lopata, S. A. Fischer, S. Krishnamoorthy, M. Jacquelin, W. Ma, M. Klemm,
       O. Villa, Y. Chen, V. Anisimov, F. Aquino, S. Hirata, M. T. Hackler,
           Eric Hermes, L. Jensen, J. E. Moore, J. C. Becca, V. Konjkov,
            D. Mejia-Rodriguez, T. Risthaus, M. Malagoli, A. Marenich,
   A. Otero-de-la-Roza, J. Mullin, P. Nichols, R. Peverati, J. Pittner, Y. Zhao,
        P.-D. Fan, A. Fonari, M. J. Williamson, R. J. Harrison, J. R. Rehr,
      M. Dupuis, D. Silverstein, D. M. A. Smith, J. Nieplocha, V. Tipparaju,
      M. Krishnan, B. E. Van Kuiken, A. Vazquez-Mayagoitia, M. Swart, Q. Wu,
   T. Van Voorhis, A. A. Auer, M. Nooijen, L. D. Crosby, E. Brown, G. Cisneros,
     G. I. Fann, H. Fruchtl, J. Garza, K. Hirao, R. A. Kendall, J. A. Nichols,
       K. Tsemekhman, K. Wolinski, J. Anchell, D. E. Bernholdt, P. Borowski,
       T. Clark, D. Clerc, H. Dachsel, M. J. O. Deegan, K. Dyall, D. Elwood,
      E. Glendening, M. Gutowski, A. C. Hess, J. Jaffe, B. G. Johnson, J. Ju,
        R. Kobayashi, R. Kutteh, Z. Lin, R. Littlefield, X. Long, B. Meng,
      T. Nakajima, S. Niu, L. Pollack, M. Rosing, K. Glaesemann, G. Sandrone,
      M. Stave, H. Taylor, G. Thomas, J. H. van Lenthe, A. T. Wong, Z. Zhang.

 Total times  cpu:    15520.2s     wall:    15526.0s
