 argument  1 = Cn1cnc2c1c(=O)n(C)c(=O)n2C b3lyp.nw



============================== echo of input deck ==============================
start

title "Cn1cnc2c1c(=O)n(C)c(=O)n2C"

echo
geometry Cn1cnc2c1c(=O)n(C)c(=O)n2C
   C  3.30340846 0.47000608 -0.03161645
   N  2.11987459 -0.38333189 -0.00651515
   C  2.09103313 -1.73853009 0.02009390
   N  0.83092037 -2.24647101 0.01999569
   C  0.06149686 -1.13925158 -0.00575048
   C  0.82564883 -0.02358616 -0.02455967
   C  0.23665877 1.23279574 -0.07941249
   O  0.94939668 2.27310930 -0.11805901
   N  -1.13779613 1.30695045 -0.09965269
   C  -1.79918930 2.61904164 -0.19522062
   C  -1.89838781 0.14867362 -0.10980440
   O  -3.15683954 0.22540074 -0.19638501
   N  -1.29799185 -1.09011398 -0.03398248
   C  -2.09382770 -2.32430871 -0.06769597
   H  3.28772959 1.15863172 0.83902733
   H  4.22682917 -0.14533949 0.01918096
   H  3.31948965 1.06011126 -0.97181094
   H  2.97849185 -2.35811931 0.03505974
   H  -1.19207500 3.41490998 0.28663735
   H  -1.95803833 2.87866627 -1.26299232
   H  -2.77868989 2.61232955 0.32901053
   H  -1.53983039 -3.17473741 0.38401717
   H  -2.34679133 -2.57496642 -1.11931750
   H  -3.03152068 -2.20187033 0.51544577
end


basis spherical
* library 6-311G
end

driver
  tight
  maxiter 200
  xyz final
end

relativistic
  zora on
  zora:cutoff_NMR 1d-8
  zora:cutoff 1d-30
end

dft
  direct
  grid fine
 xc b3lyp
  mult 1
  noprint "final vectors analysis" multipole
end

set geometry Cn1cnc2c1c(=O)n(C)c(=O)n2C
task dft optimize

property
   shielding
end

cosmo
   solvent cdcl3
end

task dft property
================================================================================


                                         
                                         


             Northwest Computational Chemistry Package (NWChem) 7.0.2
             --------------------------------------------------------


                    Environmental Molecular Sciences Laboratory
                       Pacific Northwest National Laboratory
                                Richland, WA 99352

                              Copyright (c) 1994-2020
                       Pacific Northwest National Laboratory
                            Battelle Memorial Institute

             NWChem is an open-source computational chemistry package
                        distributed under the terms of the
                      Educational Community License (ECL) 2.0
             A copy of the license is included with this distribution
                              in the LICENSE.TXT file

                                  ACKNOWLEDGMENT
                                  --------------

            This software and its documentation were developed at the
            EMSL at Pacific Northwest National Laboratory, a multiprogram
            national laboratory, operated for the U.S. Department of Energy
            by Battelle under Contract Number DE-AC05-76RL01830. Support
            for this work was provided by the Department of Energy Office
            of Biological and Environmental Research, Office of Basic
            Energy Sciences, and the Office of Advanced Scientific Computing.


           Job information
           ---------------

    hostname        = ponder
    program         = nwchem
    date            = Wed Jun 12 14:20:23 2024

    compiled        = Sat_Apr_09_17:12:10_2022
    source          = /build/nwchem-f1f4gx/nwchem-7.0.2/build-openmpi
    nwchem branch   = 7.0.2
    nwchem revision = N/A
    ga revision     = 5.8.1
    use scalapack   = T
    input           = Cn1cnc2c1c(=O)n(C)c(=O)n2C b3lyp.nw
    prefix          = Cn1cnc2c1c(=O)n(C)c(=O)n2C b3lyp.
    data base       = ./Cn1cnc2c1c(=O)n(C)c(=O)n2C b3lyp.db
    status          = startup
    nproc           =        1
    time left       =     -1s



           Memory information
           ------------------

    heap     =   13107194 doubles =    100.0 Mbytes
    stack    =   13107199 doubles =    100.0 Mbytes
    global   =   26214400 doubles =    200.0 Mbytes (distinct from heap & stack)
    total    =   52428793 doubles =    400.0 Mbytes
    verify   = yes
    hardfail = no 


           Directory information
           ---------------------

  0 permanent = .
  0 scratch   = .




                                NWChem Input Module
                                -------------------


                            Cn1cnc2c1c(=O)n(C)c(=O)n2C
                            --------------------------

 Scaling coordinates for geometry "Cn1cnc2c1c(=O)n(C)c(=O)n2C" by  1.889725989
 (inverse scale =  0.529177249)

 C1  symmetry detected

          ------
          auto-z
          ------
  no constraints, skipping    0.0000000000000000     
  no constraints, skipping    0.0000000000000000     


                    Geometry "Cn1cnc2c1c(=O)n(C)c(=O)n2C" -> ""
                    -------------------------------------------

 Output coordinates in angstroms (scale by  1.889725989 to convert to a.u.)

  No.       Tag          Charge          X              Y              Z
 ---- ---------------- ---------- -------------- -------------- --------------
    1 C                    6.0000     1.05797774    -3.25493901    -0.02799526
    2 N                    7.0000     0.01161688    -2.23814290     0.00068970
    3 C                    6.0000    -1.32821668    -2.44502280    -0.01150741
    4 N                    7.0000    -2.04722831    -1.29234200     0.00389999
    5 C                    6.0000    -1.09025181    -0.34251061     0.02893177
    6 C                    6.0000     0.14134069    -0.90121397     0.02426210
    7 C                    6.0000     1.27723058    -0.10237018     0.02021446
    8 O                    8.0000     2.42619325    -0.62292582    -0.00523718
    9 N                    7.0000     1.11190824     1.26418708     0.03520204
   10 C                    6.0000     2.29106067     2.14512156    -0.00616753
   11 C                    6.0000    -0.16030574     1.81284394     0.00960447
   12 O                    8.0000    -0.30131244     3.06754826    -0.04441572
   13 N                    7.0000    -1.27740662     1.00521311     0.03484453
   14 C                    6.0000    -2.62990671     1.57610759    -0.01566215
   15 H                    1.0000     1.71184575    -3.14536009     0.86246574
   16 H                    1.0000     0.61138674    -4.27198369    -0.01736735
   17 H                    1.0000     1.66477384    -3.14163808    -0.95071396
   18 H                    1.0000    -1.78435558    -3.42636774    -0.03594431
   19 H                    1.0000     3.16825558     1.67129418     0.48393246
   20 H                    1.0000     2.54523688     2.37711872    -1.06179347
   21 H                    1.0000     2.10140256     3.09320838     0.54104900
   22 H                    1.0000    -3.38195372     0.87055735     0.39763062
   23 H                    1.0000    -2.89484399     1.81199445    -1.06775214
   24 H                    1.0000    -2.68659843     2.50369090     0.59318005

      Atomic Mass 
      ----------- 

      C                 12.000000
      N                 14.003070
      O                 15.994910
      H                  1.007825


 Effective nuclear repulsion energy (a.u.)     932.4846465500

            Nuclear Dipole moment (a.u.) 
            ----------------------------
        X                 Y               Z
 ---------------- ---------------- ----------------
     0.0000000000    -0.0000000000     0.0000000000



                                Z-matrix (autoz)
                                -------- 

 Units are Angstrom for bonds and degrees for angles

      Type          Name      I     J     K     L     M      Value
      ----------- --------  ----- ----- ----- ----- ----- ----------
    1 Stretch                  1     2                       1.45930
    2 Stretch                  1    15                       1.11017
    3 Stretch                  1    16                       1.11083
    4 Stretch                  1    17                       1.11016
    5 Stretch                  2     3                       1.35577
    6 Stretch                  2     6                       1.34341
    7 Stretch                  3     4                       1.35863
    8 Stretch                  3    18                       1.08245
    9 Stretch                  4     5                       1.34856
   10 Stretch                  5     6                       1.35240
   11 Stretch                  5    13                       1.36067
   12 Stretch                  6     7                       1.38867
   13 Stretch                  7     8                       1.26164
   14 Stretch                  7     9                       1.37660
   15 Stretch                  9    10                       1.47247
   16 Stretch                  9    11                       1.38572
   17 Stretch                 10    19                       1.11094
   18 Stretch                 10    20                       1.11030
   19 Stretch                 10    21                       1.11098
   20 Stretch                 11    12                       1.26376
   21 Stretch                 11    13                       1.37870
   22 Stretch                 13    14                       1.46892
   23 Stretch                 14    22                       1.11094
   24 Stretch                 14    23                       1.11028
   25 Stretch                 14    24                       1.11100
   26 Bend                     1     2     3               127.02063
   27 Bend                     1     2     6               128.64629
   28 Bend                     2     1    15               109.74137
   29 Bend                     2     1    16               110.45581
   30 Bend                     2     1    17               109.70295
   31 Bend                     2     3     4               113.16833
   32 Bend                     2     3    18               123.70974
   33 Bend                     2     6     5               108.85950
   34 Bend                     2     6     7               130.64827
   35 Bend                     3     2     6               104.32618
   36 Bend                     3     4     5               102.83977
   37 Bend                     4     3    18               123.12129
   38 Bend                     4     5     6               110.80580
   39 Bend                     4     5    13               126.87732
   40 Bend                     5     6     7               120.48145
   41 Bend                     5    13    11               117.94932
   42 Bend                     5    13    14               120.76024
   43 Bend                     6     5    13               122.30750
   44 Bend                     6     7     8               120.50545
   45 Bend                     6     7     9               118.21581
   46 Bend                     7     9    10               119.82998
   47 Bend                     7     9    11               120.20563
   48 Bend                     8     7     9               121.27720
   49 Bend                     9    10    19               111.39205
   50 Bend                     9    10    20               109.57518
   51 Bend                     9    10    21               111.10055
   52 Bend                     9    11    12               119.75741
   53 Bend                     9    11    13               120.77141
   54 Bend                    10     9    11               119.85532
   55 Bend                    11    13    14               121.18089
   56 Bend                    12    11    13               119.47018
   57 Bend                    13    14    22               111.32607
   58 Bend                    13    14    23               109.56413
   59 Bend                    13    14    24               110.64815
   60 Bend                    15     1    16               108.63200
   61 Bend                    15     1    17               109.55236
   62 Bend                    16     1    17               108.73193
   63 Bend                    19    10    20               109.13495
   64 Bend                    19    10    21               106.34826
   65 Bend                    20    10    21               109.21192
   66 Bend                    22    14    23               109.02120
   67 Bend                    22    14    24               106.96757
   68 Bend                    23    14    24               109.25257
   69 Torsion                  1     2     3     4        -179.12774
   70 Torsion                  1     2     3    18           0.58850
   71 Torsion                  1     2     6     5         179.22738
   72 Torsion                  1     2     6     7           0.44526
   73 Torsion                  2     3     4     5          -0.10398
   74 Torsion                  2     6     5     4          -0.21812
   75 Torsion                  2     6     5    13        -179.17462
   76 Torsion                  2     6     7     8          -0.22535
   77 Torsion                  2     6     7     9         179.32895
   78 Torsion                  3     2     1    15        -122.24591
   79 Torsion                  3     2     1    16          -2.50079
   80 Torsion                  3     2     1    17         117.34362
   81 Torsion                  3     2     6     5           0.14092
   82 Torsion                  3     2     6     7        -178.64120
   83 Torsion                  3     4     5     6           0.19178
   84 Torsion                  3     4     5    13         179.08922
   85 Torsion                  4     3     2     6          -0.02137
   86 Torsion                  4     5     6     7         178.70968
   87 Torsion                  4     5    13    11        -177.53752
   88 Torsion                  4     5    13    14          -1.29868
   89 Torsion                  5     4     3    18        -179.82214
   90 Torsion                  5     6     7     8        -178.88801
   91 Torsion                  5     6     7     9           0.66629
   92 Torsion                  5    13    11     9          -2.69558
   93 Torsion                  5    13    11    12         176.94011
   94 Torsion                  5    13    14    22          25.85892
   95 Torsion                  5    13    14    23         -94.80857
   96 Torsion                  5    13    14    24         144.66894
   97 Torsion                  6     2     1    15          58.86271
   98 Torsion                  6     2     1    16         178.60783
   99 Torsion                  6     2     1    17         -61.54776
  100 Torsion                  6     2     3    18         179.69488
  101 Torsion                  6     5    13    11           1.24302
  102 Torsion                  6     5    13    14         177.48186
  103 Torsion                  6     7     9    10        -178.31029
  104 Torsion                  6     7     9    11          -2.11238
  105 Torsion                  7     6     5    13          -0.24682
  106 Torsion                  7     9    10    19         -30.65534
  107 Torsion                  7     9    10    20          90.20474
  108 Torsion                  7     9    10    21        -149.02708
  109 Torsion                  7     9    11    12        -176.44472
  110 Torsion                  7     9    11    13           3.18993
  111 Torsion                  8     7     9    10           1.24041
  112 Torsion                  8     7     9    11         177.43832
  113 Torsion                  9    11    13    14        -178.91779
  114 Torsion                 10     9    11    12          -0.24778
  115 Torsion                 10     9    11    13         179.38688
  116 Torsion                 11     9    10    19         153.13332
  117 Torsion                 11     9    10    20         -86.00661
  118 Torsion                 11     9    10    21          34.76158
  119 Torsion                 11    13    14    22        -158.02475
  120 Torsion                 11    13    14    23          81.30776
  121 Torsion                 11    13    14    24         -39.21472
  122 Torsion                 12    11    13    14           0.71790


            XYZ format geometry
            -------------------
    24
 Cn1cnc2c1c(=O)n(C)c(=O)n2C
 C                     1.05797774    -3.25493901    -0.02799526
 N                     0.01161688    -2.23814290     0.00068970
 C                    -1.32821668    -2.44502280    -0.01150741
 N                    -2.04722831    -1.29234200     0.00389999
 C                    -1.09025181    -0.34251061     0.02893177
 C                     0.14134069    -0.90121397     0.02426210
 C                     1.27723058    -0.10237018     0.02021446
 O                     2.42619325    -0.62292582    -0.00523718
 N                     1.11190824     1.26418708     0.03520204
 C                     2.29106067     2.14512156    -0.00616753
 C                    -0.16030574     1.81284394     0.00960447
 O                    -0.30131244     3.06754826    -0.04441572
 N                    -1.27740662     1.00521311     0.03484453
 C                    -2.62990671     1.57610759    -0.01566215
 H                     1.71184575    -3.14536009     0.86246574
 H                     0.61138674    -4.27198369    -0.01736735
 H                     1.66477384    -3.14163808    -0.95071396
 H                    -1.78435558    -3.42636774    -0.03594431
 H                     3.16825558     1.67129418     0.48393246
 H                     2.54523688     2.37711872    -1.06179347
 H                     2.10140256     3.09320838     0.54104900
 H                    -3.38195372     0.87055735     0.39763062
 H                    -2.89484399     1.81199445    -1.06775214
 H                    -2.68659843     2.50369090     0.59318005

 ==============================================================================
                                internuclear distances
 ------------------------------------------------------------------------------
       center one      |      center two      | atomic units |  angstroms
 ------------------------------------------------------------------------------
    2 N                |   1 C                |     2.75768  |     1.45930
    3 C                |   2 N                |     2.56203  |     1.35577
    4 N                |   3 C                |     2.56745  |     1.35863
    5 C                |   4 N                |     2.54841  |     1.34856
    6 C                |   2 N                |     2.53869  |     1.34341
    6 C                |   5 C                |     2.55567  |     1.35240
    7 C                |   6 C                |     2.62421  |     1.38867
    8 O                |   7 C                |     2.38416  |     1.26164
    9 N                |   7 C                |     2.60140  |     1.37660
   10 C                |   9 N                |     2.78256  |     1.47247
   11 C                |   9 N                |     2.61862  |     1.38572
   12 O                |  11 C                |     2.38816  |     1.26376
   13 N                |   5 C                |     2.57129  |     1.36067
   13 N                |  11 C                |     2.60537  |     1.37870
   14 C                |  13 N                |     2.77586  |     1.46892
   15 H                |   1 C                |     2.09791  |     1.11017
   16 H                |   1 C                |     2.09916  |     1.11083
   17 H                |   1 C                |     2.09789  |     1.11016
   18 H                |   3 C                |     2.04553  |     1.08245
   19 H                |  10 C                |     2.09937  |     1.11094
   20 H                |  10 C                |     2.09817  |     1.11030
   21 H                |  10 C                |     2.09945  |     1.11098
   22 H                |  14 C                |     2.09937  |     1.11094
   23 H                |  14 C                |     2.09813  |     1.11028
   24 H                |  14 C                |     2.09948  |     1.11100
 ------------------------------------------------------------------------------
                         number of included internuclear distances:         25
 ==============================================================================



 ==============================================================================
                                 internuclear angles
 ------------------------------------------------------------------------------
        center 1       |       center 2       |       center 3       |  degrees
 ------------------------------------------------------------------------------
    2 N                |   1 C                |  15 H                |   109.74
    2 N                |   1 C                |  16 H                |   110.46
    2 N                |   1 C                |  17 H                |   109.70
   15 H                |   1 C                |  16 H                |   108.63
   15 H                |   1 C                |  17 H                |   109.55
   16 H                |   1 C                |  17 H                |   108.73
    1 C                |   2 N                |   3 C                |   127.02
    1 C                |   2 N                |   6 C                |   128.65
    3 C                |   2 N                |   6 C                |   104.33
    2 N                |   3 C                |   4 N                |   113.17
    2 N                |   3 C                |  18 H                |   123.71
    4 N                |   3 C                |  18 H                |   123.12
    3 C                |   4 N                |   5 C                |   102.84
    4 N                |   5 C                |   6 C                |   110.81
    4 N                |   5 C                |  13 N                |   126.88
    6 C                |   5 C                |  13 N                |   122.31
    2 N                |   6 C                |   5 C                |   108.86
    2 N                |   6 C                |   7 C                |   130.65
    5 C                |   6 C                |   7 C                |   120.48
    6 C                |   7 C                |   8 O                |   120.51
    6 C                |   7 C                |   9 N                |   118.22
    8 O                |   7 C                |   9 N                |   121.28
    7 C                |   9 N                |  10 C                |   119.83
    7 C                |   9 N                |  11 C                |   120.21
   10 C                |   9 N                |  11 C                |   119.86
    9 N                |  10 C                |  19 H                |   111.39
    9 N                |  10 C                |  20 H                |   109.58
    9 N                |  10 C                |  21 H                |   111.10
   19 H                |  10 C                |  20 H                |   109.13
   19 H                |  10 C                |  21 H                |   106.35
   20 H                |  10 C                |  21 H                |   109.21
    9 N                |  11 C                |  12 O                |   119.76
    9 N                |  11 C                |  13 N                |   120.77
   12 O                |  11 C                |  13 N                |   119.47
    5 C                |  13 N                |  11 C                |   117.95
    5 C                |  13 N                |  14 C                |   120.76
   11 C                |  13 N                |  14 C                |   121.18
   13 N                |  14 C                |  22 H                |   111.33
   13 N                |  14 C                |  23 H                |   109.56
   13 N                |  14 C                |  24 H                |   110.65
   22 H                |  14 C                |  23 H                |   109.02
   22 H                |  14 C                |  24 H                |   106.97
   23 H                |  14 C                |  24 H                |   109.25
 ------------------------------------------------------------------------------
                            number of included internuclear angles:         43
 ==============================================================================





 Summary of "ao basis" -> "" (spherical)
 ------------------------------------------------------------------------------
       Tag                 Description            Shells   Functions and Types
 ---------------- ------------------------------  ------  ---------------------
 *                           6-311G                   on all atoms 




                           NWChem Geometry Optimization
                           ----------------------------




                            Cn1cnc2c1c(=O)n(C)c(=O)n2C


  no constraints, skipping    0.0000000000000000     
 maximum gradient threshold         (gmax) =   0.000015
 rms gradient threshold             (grms) =   0.000010
 maximum cartesian step threshold   (xmax) =   0.000060
 rms cartesian step threshold       (xrms) =   0.000040
 fixed trust radius                (trust) =   0.300000
 maximum step size to saddle      (sadstp) =   0.100000
 energy precision                  (eprec) =   5.0D-06
 maximum number of steps          (nptopt) =  200
 initial hessian option           (inhess) =    0
 line search option               (linopt) =    1
 hessian update option            (modupd) =    1
 saddle point option              (modsad) =    0
 initial eigen-mode to follow     (moddir) =    0
 initial variable to follow       (vardir) =    0
 follow first negative mode     (firstneg) =    T
 apply conjugacy                    (opcg) =    F
 source of zmatrix                         =   autoz   


          -------------------
          Energy Minimization
          -------------------


 Names of Z-matrix variables 
    1              2              3              4              5         
    6              7              8              9             10         
   11             12             13             14             15         
   16             17             18             19             20         
   21             22             23             24             25         
   26             27             28             29             30         
   31             32             33             34             35         
   36             37             38             39             40         
   41             42             43             44             45         
   46             47             48             49             50         
   51             52             53             54             55         
   56             57             58             59             60         
   61             62             63             64             65         
   66             67             68             69             70         
   71             72             73             74             75         
   76             77             78             79             80         
   81             82             83             84             85         
   86             87             88             89             90         
   91             92             93             94             95         
   96             97             98             99            100         
  101            102            103            104            105         
  106            107            108            109            110         
  111            112            113            114            115         
  116            117            118            119            120         
  121            122         

 Variables with the same non-blank name are constrained to be equal


 Using diagonal initial Hessian 
 Scaling for Hessian diagonals: bonds = 1.00  angles = 0.25  torsions = 0.10

          --------
          Step   0
          --------


                Geometry "geometry" -> "Cn1cnc2c1c(=O)n(C)c(=O)n2C"
                ---------------------------------------------------

 Output coordinates in angstroms (scale by  1.889725989 to convert to a.u.)

  No.       Tag          Charge          X              Y              Z
 ---- ---------------- ---------- -------------- -------------- --------------
    1 C                    6.0000     1.05797774    -3.25493901    -0.02799526
    2 N                    7.0000     0.01161688    -2.23814290     0.00068970
    3 C                    6.0000    -1.32821668    -2.44502280    -0.01150741
    4 N                    7.0000    -2.04722831    -1.29234200     0.00389999
    5 C                    6.0000    -1.09025181    -0.34251061     0.02893177
    6 C                    6.0000     0.14134069    -0.90121397     0.02426210
    7 C                    6.0000     1.27723058    -0.10237018     0.02021446
    8 O                    8.0000     2.42619325    -0.62292582    -0.00523718
    9 N                    7.0000     1.11190824     1.26418708     0.03520204
   10 C                    6.0000     2.29106067     2.14512156    -0.00616753
   11 C                    6.0000    -0.16030574     1.81284394     0.00960447
   12 O                    8.0000    -0.30131244     3.06754826    -0.04441572
   13 N                    7.0000    -1.27740662     1.00521311     0.03484453
   14 C                    6.0000    -2.62990671     1.57610759    -0.01566215
   15 H                    1.0000     1.71184575    -3.14536009     0.86246574
   16 H                    1.0000     0.61138674    -4.27198369    -0.01736735
   17 H                    1.0000     1.66477384    -3.14163808    -0.95071396
   18 H                    1.0000    -1.78435558    -3.42636774    -0.03594431
   19 H                    1.0000     3.16825558     1.67129418     0.48393246
   20 H                    1.0000     2.54523688     2.37711872    -1.06179347
   21 H                    1.0000     2.10140256     3.09320838     0.54104900
   22 H                    1.0000    -3.38195372     0.87055735     0.39763062
   23 H                    1.0000    -2.89484399     1.81199445    -1.06775214
   24 H                    1.0000    -2.68659843     2.50369090     0.59318005

      Atomic Mass 
      ----------- 

      C                 12.000000
      N                 14.003070
      O                 15.994910
      H                  1.007825


 Effective nuclear repulsion energy (a.u.)     932.4846465500

            Nuclear Dipole moment (a.u.) 
            ----------------------------
        X                 Y               Z
 ---------------- ---------------- ----------------
     0.0000000000    -0.0000000000     0.0000000000


                                 NWChem DFT Module
                                 -----------------


                            Cn1cnc2c1c(=O)n(C)c(=O)n2C


                      Basis "ao basis" -> "ao basis" (spherical)
                      -----
  C (Carbon)
  ----------
            Exponent  Coefficients 
       -------------- ---------------------------------------------------------
  1 S  4.56324000E+03  0.001967
  1 S  6.82024000E+02  0.015231
  1 S  1.54973000E+02  0.076127
  1 S  4.44553000E+01  0.260801
  1 S  1.30290000E+01  0.616462
  1 S  1.82773000E+00  0.221006

  2 S  2.09642000E+01  0.114660
  2 S  4.80331000E+00  0.919999
  2 S  1.45933000E+00 -0.003031

  3 P  2.09642000E+01  0.040249
  3 P  4.80331000E+00  0.237594
  3 P  1.45933000E+00  0.815854

  4 S  4.83456000E-01  1.000000

  5 P  4.83456000E-01  1.000000

  6 S  1.45585000E-01  1.000000

  7 P  1.45585000E-01  1.000000

  N (Nitrogen)
  ------------
            Exponent  Coefficients 
       -------------- ---------------------------------------------------------
  1 S  6.29348000E+03  0.001970
  1 S  9.49044000E+02  0.014961
  1 S  2.18776000E+02  0.073501
  1 S  6.36916000E+01  0.248937
  1 S  1.88282000E+01  0.602460
  1 S  2.72023000E+00  0.256202

  2 S  3.06331000E+01  0.111906
  2 S  7.02614000E+00  0.921666
  2 S  2.11205000E+00 -0.002569

  3 P  3.06331000E+01  0.038312
  3 P  7.02614000E+00  0.237403
  3 P  2.11205000E+00  0.817592

  4 S  6.84009000E-01  1.000000

  5 P  6.84009000E-01  1.000000

  6 S  2.00878000E-01  1.000000

  7 P  2.00878000E-01  1.000000

  O (Oxygen)
  ----------
            Exponent  Coefficients 
       -------------- ---------------------------------------------------------
  1 S  8.58850000E+03  0.001895
  1 S  1.29723000E+03  0.014386
  1 S  2.99296000E+02  0.070732
  1 S  8.73771000E+01  0.240001
  1 S  2.56789000E+01  0.594797
  1 S  3.74004000E+00  0.280802

  2 S  4.21175000E+01  0.113889
  2 S  9.62837000E+00  0.920811
  2 S  2.85332000E+00 -0.003274

  3 P  4.21175000E+01  0.036511
  3 P  9.62837000E+00  0.237153
  3 P  2.85332000E+00  0.819702

  4 S  9.05661000E-01  1.000000

  5 P  9.05661000E-01  1.000000

  6 S  2.55611000E-01  1.000000

  7 P  2.55611000E-01  1.000000

  H (Hydrogen)
  ------------
            Exponent  Coefficients 
       -------------- ---------------------------------------------------------
  1 S  3.38650000E+01  0.025494
  1 S  5.09479000E+00  0.190373
  1 S  1.15879000E+00  0.852161

  2 S  3.25840000E-01  1.000000

  3 S  1.02741000E-01  1.000000



 Summary of "ao basis" -> "ao basis" (spherical)
 ------------------------------------------------------------------------------
       Tag                 Description            Shells   Functions and Types
 ---------------- ------------------------------  ------  ---------------------
 C                           6-311G                  7       13   4s3p
 N                           6-311G                  7       13   4s3p
 O                           6-311G                  7       13   4s3p
 H                           6-311G                  3        3   3s




 Summary of "ao basis" -> "ao basis" (spherical)
 ------------------------------------------------------------------------------
       Tag                 Description            Shells   Functions and Types
 ---------------- ------------------------------  ------  ---------------------
 C                           6-311G                  7       13   4s3p
 N                           6-311G                  7       13   4s3p
 O                           6-311G                  7       13   4s3p
 H                           6-311G                  3        3   3s


  Caching 1-el integrals 

            General Information
            -------------------
          SCF calculation type: DFT
          Wavefunction type:  closed shell.
          No. of atoms     :    24
          No. of electrons :   102
           Alpha electrons :    51
            Beta electrons :    51
          Charge           :     0
          Spin multiplicity:     1
          Use of symmetry is: off; symmetry adaption is: off
          Maximum number of iterations:  30
          This is a Direct SCF calculation.
          AO basis - number of functions:   212
                     number of shells:   128
          Convergence on energy requested:  1.00D-06
          Convergence on density requested:  1.00D-05
          Convergence on gradient requested:  5.00D-04

              XC Information
              --------------
                         B3LYP Method XC Potential
                     Hartree-Fock (Exact) Exchange  0.200          
                        Slater Exchange Functional  0.800 local    
                    Becke 1988 Exchange Functional  0.720 non-local
              Lee-Yang-Parr Correlation Functional  0.810          
                  VWN I RPA Correlation Functional  0.190 local    

             Grid Information
             ----------------
          Grid used for XC integration:  fine      
          Radial quadrature: Mura-Knowles        
          Angular quadrature: Lebedev. 
          Tag              B.-S. Rad. Rad. Pts. Rad. Cut. Ang. Pts.
          ---              ---------- --------- --------- ---------
          C                   0.70       70          16.0       590
          N                   0.65       70          14.0       590
          O                   0.60       70          15.0       590
          H                   0.35       60          16.0       590
          Grid pruning is: on 
          Number of quadrature shells:  1580
          Spatial weights used:  Erf1

          Convergence Information
          -----------------------
          Convergence aids based upon iterative change in 
          total energy or number of iterations. 
          Levelshifting, if invoked, occurs when the 
          HOMO/LUMO gap drops below (HL_TOL):  1.00D-02
          DIIS, if invoked, will attempt to extrapolate 
          using up to (NFOCK): 10 stored Fock matrices.

                    Damping( 0%)  Levelshifting(0.5)       DIIS
                  --------------- ------------------- ---------------
          dE  on:    start            ASAP                start   
          dE off:    2 iters         30 iters            30 iters 


      Screening Tolerance Information
      -------------------------------
          Density screening/tol_rho:  1.00D-10
          AO Gaussian exp screening on grid/accAOfunc:  14
          CD Gaussian exp screening on grid/accCDfunc:  20
          XC Gaussian exp screening on grid/accXCfunc:  20
          Schwarz screening/accCoul:  1.00D-08

          Performing ZORA calculations
          ----------------------------


      Superposition of Atomic Density Guess
      -------------------------------------

 Sum of atomic energies:        -673.12548380

 Read atomic ZORA corrections from ./Cn1cnc2c1c(=O)n(C)c(=O)n2C b3lyp.zora_sf

 dft_zora_read: failed to open./Cn1cnc2c1c(=O)n(C)c(=O)n2C b3lyp.zora_sf
 Forcing recalculation of ZORA corrections
       Generating atomic ZORA corrections
       ----------------------------------

 In dft_scf:: zora:Knucl= F

 Grid_pts file          = ./Cn1cnc2c1c(=O)n(C)c(=O)n2C b3lyp.gridpts.0
 Record size in doubles =  12289        No. of grid_pts per rec  =   3070
 Max. records in memory =    335        Max. recs in file   =    785401

 Grid integrated density:     102.000016007114
 Requested integration accuracy:   0.10E-06

 Wrote atomic ZORA corrections to ./Cn1cnc2c1c(=O)n(C)c(=O)n2C b3lyp.zora_sf


      Superposition of Atomic Density Guess
      -------------------------------------

 Sum of atomic energies:        -673.12548380

      Non-variational initial energy
      ------------------------------

 Total energy =    -682.539408
 1-e energy   =   -2767.328836
 2-e energy   =    1152.304782
 HOMO         =      -0.210745
 LUMO         =       0.009054

   Time after variat. SCF:    115.1
   Time prior to 1st pass:    115.1

           Memory utilization after 1st SCF pass: 
           Heap Space remaining (MW):        8.89             8891738
          Stack Space remaining (MW):       13.02            13015308

   convergence    iter        energy       DeltaE   RMS-Dens  Diis-err    time
 ---------------- ----- ----------------- --------- --------- ---------  ------
 d= 0,ls=0.0,diis     1   -680.3618554258 -1.61D+03  3.21D-02  4.68D+00   132.7
 d= 0,ls=0.0,diis     2   -678.3580959933  2.00D+00  2.68D-02  2.35D+01   150.9
 d= 0,ls=0.0,diis     3   -680.7549491816 -2.40D+00  3.75D-03  6.54D-01   168.7
 d= 0,ls=0.0,diis     4   -680.7903031760 -3.54D-02  2.05D-03  2.62D-01   186.5
 d= 0,ls=0.0,diis     5   -680.8143681398 -2.41D-02  7.38D-04  3.02D-02   208.0
  Resetting Diis
 d= 0,ls=0.0,diis     6   -680.8173641600 -3.00D-03  2.07D-04  2.73D-03   229.6
 d= 0,ls=0.0,diis     7   -680.8176527153 -2.89D-04  1.73D-04  2.78D-04   251.0
 d= 0,ls=0.0,diis     8   -680.8175665301  8.62D-05  1.14D-04  1.04D-03   272.6
 d= 0,ls=0.0,diis     9   -680.8176844955 -1.18D-04  1.71D-05  2.20D-05   294.1
 d= 0,ls=0.0,diis    10   -680.8176863330 -1.84D-06  5.08D-06  1.24D-06   315.6
 d= 0,ls=0.0,diis    11   -680.8176864693 -1.36D-07  1.45D-06  7.36D-08   337.2
(nogshift,skip_gshiftAOev,done_Fji)=( 1,F,F)


         Total DFT energy =     -680.817686469314
      One electron energy =    -2775.088422369466
           Coulomb energy =     1254.001809258260
    Exchange-Corr. energy =      -92.215719908078
 Nuclear repulsion energy =      932.484646549971

       Scaling correction =        0.198845899483

 Numeric. integr. density =      102.000008662635

     Total iterative time =    222.2s



 center of mass
 --------------
 x =  -0.01036452 y =   0.01585351 z =   0.00247118

 moments of inertia (a.u.)
 ------------------
        2518.183655475059          -0.000000000000          -0.000000000000
          -0.000000000000        1686.245963678359          -0.000000000000
          -0.000000000000          -0.000000000000        4168.031866335598

            General Information
            -------------------
          SCF calculation type: DFT
          Wavefunction type:  closed shell.
          No. of atoms     :    24
          No. of electrons :   102
           Alpha electrons :    51
            Beta electrons :    51
          Charge           :     0
          Spin multiplicity:     1
          Use of symmetry is: off; symmetry adaption is: off
          Maximum number of iterations:  30
          This is a Direct SCF calculation.
          AO basis - number of functions:   212
                     number of shells:   128
          Convergence on energy requested:  1.00D-06
          Convergence on density requested:  1.00D-05
          Convergence on gradient requested:  5.00D-04

              XC Information
              --------------
                         B3LYP Method XC Potential
                     Hartree-Fock (Exact) Exchange  0.200          
                        Slater Exchange Functional  0.800 local    
                    Becke 1988 Exchange Functional  0.720 non-local
              Lee-Yang-Parr Correlation Functional  0.810          
                  VWN I RPA Correlation Functional  0.190 local    

             Grid Information
             ----------------
          Grid used for XC integration:  fine      
          Radial quadrature: Mura-Knowles        
          Angular quadrature: Lebedev. 
          Tag              B.-S. Rad. Rad. Pts. Rad. Cut. Ang. Pts.
          ---              ---------- --------- --------- ---------
          C                   0.70       70          16.0       590
          N                   0.65       70          14.0       590
          O                   0.60       70          15.0       590
          H                   0.35       60          16.0       590
          Grid pruning is: on 
          Number of quadrature shells:  1580
          Spatial weights used:  Erf1

          Convergence Information
          -----------------------
          Convergence aids based upon iterative change in 
          total energy or number of iterations. 
          Levelshifting, if invoked, occurs when the 
          HOMO/LUMO gap drops below (HL_TOL):  1.00D-02
          DIIS, if invoked, will attempt to extrapolate 
          using up to (NFOCK): 10 stored Fock matrices.

                    Damping( 0%)  Levelshifting(0.5)       DIIS
                  --------------- ------------------- ---------------
          dE  on:    start            ASAP                start   
          dE off:    2 iters         30 iters            30 iters 


      Screening Tolerance Information
      -------------------------------
          Density screening/tol_rho:  1.00D-10
          AO Gaussian exp screening on grid/accAOfunc:  14
          CD Gaussian exp screening on grid/accCDfunc:  20
          XC Gaussian exp screening on grid/accXCfunc:  20
          Schwarz screening/accCoul:  1.00D-08



                            NWChem DFT Gradient Module
                            --------------------------


                            Cn1cnc2c1c(=O)n(C)c(=O)n2C



  charge          =   0.00
  wavefunction    = closed shell



                         DFT ENERGY GRADIENTS

    atom               coordinates                        gradient
                 x          y          z           x          y          z
   1 C       1.999288  -6.150943  -0.052903   -0.015782   0.011463  -0.000075
   2 N       0.021953  -4.229477   0.001303    0.012086   0.033858   0.000989
   3 C      -2.509966  -4.620423  -0.021746    0.029477   0.013521   0.000275
   4 N      -3.868701  -2.442172   0.007370    0.007833   0.025310  -0.000099
   5 C      -2.060277  -0.647251   0.054673    0.019852   0.001029   0.000598
   6 C       0.267095  -1.703047   0.045849   -0.017806  -0.039548  -0.001563
   7 C       2.413616  -0.193452   0.038200   -0.054836   0.022919   0.000166
   8 O       4.584840  -1.177159  -0.009897   -0.011135  -0.003441  -0.000291
   9 N       2.101202   2.388967   0.066522    0.008310   0.004481  -0.004258
  10 C       4.329477   4.053692  -0.011655   -0.015235  -0.014587  -0.003640
  11 C      -0.302934   3.425778   0.018150    0.011917  -0.060672   0.002155
  12 O      -0.569398   5.796826  -0.083934   -0.001302   0.009001  -0.001287
  13 N      -2.413948   1.899577   0.065847    0.003981   0.001210  -0.004684
  14 C      -4.969803   2.978411  -0.029597    0.016504  -0.012624  -0.002114
  15 H       3.234919  -5.943869   1.629824    0.006572   0.000854   0.013833
  16 H       1.155353  -8.072879  -0.032820   -0.001334  -0.014992   0.000135
  17 H       3.145966  -5.936835  -1.796589    0.005582   0.001103  -0.013920
  18 H      -3.371943  -6.474896  -0.067925   -0.004433  -0.004733  -0.000365
  19 H       5.987135   3.158288   0.914500    0.016156   0.001923   0.009825
  20 H       4.809800   4.492103  -2.006499    0.001917   0.001513  -0.012659
  21 H       3.971075   5.845316   1.022434    0.005231   0.013807   0.010775
  22 H      -6.390966   1.645115   0.751413   -0.015964  -0.003531   0.007600
  23 H      -5.470462   3.424173  -2.017759   -0.001425   0.000943  -0.012423
  24 H      -5.076935   4.731290   1.120948   -0.006167   0.011193   0.011027

                 ----------------------------------------
                 |  Time  |  1-e(secs)   |  2-e(secs)   |
                 ----------------------------------------
                 |  CPU   |       0.09   |      34.91   |
                 ----------------------------------------
                 |  WALL  |       0.09   |      34.93   |
                 ----------------------------------------
  no constraints, skipping    0.0000000000000000     

@ Step       Energy      Delta E   Gmax     Grms     Xrms     Xmax   Walltime
@ ---- ---------------- -------- -------- -------- -------- -------- --------
@    0    -680.81768647  0.0D+00  0.03830  0.00913  0.00000  0.00000    386.0
                                                                    



                                Z-matrix (autoz)
                                -------- 

 Units are Angstrom for bonds and degrees for angles

      Type          Name      I     J     K     L     M      Value     Gradient
      ----------- --------  ----- ----- ----- ----- ----- ---------- ----------
    1 Stretch                  1     2                       1.45930   -0.00246
    2 Stretch                  1    15                       1.11017    0.01505
    3 Stretch                  1    16                       1.11083    0.01426
    4 Stretch                  1    17                       1.11016    0.01473
    5 Stretch                  2     3                       1.35577   -0.02098
    6 Stretch                  2     6                       1.34341   -0.03830
    7 Stretch                  3     4                       1.35863   -0.00219
    8 Stretch                  3    18                       1.08245    0.00617
    9 Stretch                  4     5                       1.34856   -0.03021
   10 Stretch                  5     6                       1.35240   -0.02063
   11 Stretch                  5    13                       1.36067   -0.02414
   12 Stretch                  6     7                       1.38867   -0.03056
   13 Stretch                  7     8                       1.26164   -0.00871
   14 Stretch                  7     9                       1.37660   -0.02555
   15 Stretch                  9    10                       1.47247    0.00793
   16 Stretch                  9    11                       1.38572   -0.02446
   17 Stretch                 10    19                       1.11094    0.01627
   18 Stretch                 10    20                       1.11030    0.01279
   19 Stretch                 10    21                       1.11098    0.01620
   20 Stretch                 11    12                       1.26376    0.00914
   21 Stretch                 11    13                       1.37870   -0.01595
   22 Stretch                 13    14                       1.46892    0.00479
   23 Stretch                 14    22                       1.11094    0.01588
   24 Stretch                 14    23                       1.11028    0.01231
   25 Stretch                 14    24                       1.11100    0.01570
   26 Bend                     1     2     3               127.02063    0.00123
   27 Bend                     1     2     6               128.64629    0.00271
   28 Bend                     2     1    15               109.74137   -0.00134
   29 Bend                     2     1    16               110.45581    0.00395
   30 Bend                     2     1    17               109.70295   -0.00154
   31 Bend                     2     3     4               113.16833   -0.00246
   32 Bend                     2     3    18               123.70974    0.00232
   33 Bend                     2     6     5               108.85950    0.01586
   34 Bend                     2     6     7               130.64827   -0.01003
   35 Bend                     3     2     6               104.32618   -0.00394
   36 Bend                     3     4     5               102.83977   -0.01142
   37 Bend                     4     3    18               123.12129    0.00013
   38 Bend                     4     5     6               110.80580    0.00196
   39 Bend                     4     5    13               126.87732   -0.00434
   40 Bend                     5     6     7               120.48145   -0.00583
   41 Bend                     5    13    11               117.94932   -0.00654
   42 Bend                     5    13    14               120.76024    0.00024
   43 Bend                     6     5    13               122.30750    0.00237
   44 Bend                     6     7     8               120.50545   -0.01314
   45 Bend                     6     7     9               118.21581    0.01652
   46 Bend                     7     9    10               119.82998    0.00523
   47 Bend                     7     9    11               120.20563   -0.01276
   48 Bend                     8     7     9               121.27720   -0.00338
   49 Bend                     9    10    19               111.39205    0.00575
   50 Bend                     9    10    20               109.57518   -0.00257
   51 Bend                     9    10    21               111.10055    0.00416
   52 Bend                     9    11    12               119.75741   -0.00293
   53 Bend                     9    11    13               120.77141    0.00623
   54 Bend                    10     9    11               119.85532    0.00752
   55 Bend                    11    13    14               121.18089    0.00628
   56 Bend                    12    11    13               119.47018   -0.00330
   57 Bend                    13    14    22               111.32607    0.00568
   58 Bend                    13    14    23               109.56413   -0.00281
   59 Bend                    13    14    24               110.64815    0.00258
   60 Bend                    15     1    16               108.63200   -0.00143
   61 Bend                    15     1    17               109.55236    0.00168
   62 Bend                    16     1    17               108.73193   -0.00131
   63 Bend                    19    10    20               109.13495   -0.00106
   64 Bend                    19    10    21               106.34826   -0.00599
   65 Bend                    20    10    21               109.21192   -0.00047
   66 Bend                    22    14    23               109.02120   -0.00113
   67 Bend                    22    14    24               106.96757   -0.00473
   68 Bend                    23    14    24               109.25257    0.00032
   69 Torsion                  1     2     3     4        -179.12774    0.00006
   70 Torsion                  1     2     3    18           0.58850   -0.00004
   71 Torsion                  1     2     6     5         179.22738   -0.00005
   72 Torsion                  1     2     6     7           0.44526    0.00003
   73 Torsion                  2     3     4     5          -0.10398   -0.00001
   74 Torsion                  2     6     5     4          -0.21812   -0.00008
   75 Torsion                  2     6     5    13        -179.17462    0.00028
   76 Torsion                  2     6     7     8          -0.22535    0.00018
   77 Torsion                  2     6     7     9         179.32895    0.00012
   78 Torsion                  3     2     1    15        -122.24591    0.00006
   79 Torsion                  3     2     1    16          -2.50079   -0.00008
   80 Torsion                  3     2     1    17         117.34362   -0.00021
   81 Torsion                  3     2     6     5           0.14092    0.00003
   82 Torsion                  3     2     6     7        -178.64120    0.00012
   83 Torsion                  3     4     5     6           0.19178    0.00000
   84 Torsion                  3     4     5    13         179.08922   -0.00029
   85 Torsion                  4     3     2     6          -0.02137   -0.00001
   86 Torsion                  4     5     6     7         178.70968   -0.00026
   87 Torsion                  4     5    13    11        -177.53752    0.00017
   88 Torsion                  4     5    13    14          -1.29868    0.00025
   89 Torsion                  5     4     3    18        -179.82214    0.00007
   90 Torsion                  5     6     7     8        -178.88801    0.00007
   91 Torsion                  5     6     7     9           0.66629    0.00001
   92 Torsion                  5    13    11     9          -2.69558   -0.00013
   93 Torsion                  5    13    11    12         176.94011   -0.00040
   94 Torsion                  5    13    14    22          25.85892    0.00054
   95 Torsion                  5    13    14    23         -94.80857    0.00017
   96 Torsion                  5    13    14    24         144.66894   -0.00004
   97 Torsion                  6     2     1    15          58.86271    0.00020
   98 Torsion                  6     2     1    16         178.60783    0.00006
   99 Torsion                  6     2     1    17         -61.54776   -0.00007
  100 Torsion                  6     2     3    18         179.69488   -0.00010
  101 Torsion                  6     5    13    11           1.24302   -0.00017
  102 Torsion                  6     5    13    14         177.48186   -0.00009
  103 Torsion                  6     7     9    10        -178.31029   -0.00006
  104 Torsion                  6     7     9    11          -2.11238    0.00011
  105 Torsion                  7     6     5    13          -0.24682    0.00011
  106 Torsion                  7     9    10    19         -30.65534   -0.00093
  107 Torsion                  7     9    10    20          90.20474   -0.00025
  108 Torsion                  7     9    10    21        -149.02708    0.00014
  109 Torsion                  7     9    11    12        -176.44472    0.00012
  110 Torsion                  7     9    11    13           3.18993   -0.00015
  111 Torsion                  8     7     9    10           1.24041   -0.00016
  112 Torsion                  8     7     9    11         177.43832    0.00000
  113 Torsion                  9    11    13    14        -178.91779    0.00003
  114 Torsion                 10     9    11    12          -0.24778    0.00020
  115 Torsion                 10     9    11    13         179.38688   -0.00008
  116 Torsion                 11     9    10    19         153.13332   -0.00031
  117 Torsion                 11     9    10    20         -86.00661    0.00036
  118 Torsion                 11     9    10    21          34.76158    0.00075
  119 Torsion                 11    13    14    22        -158.02475    0.00013
  120 Torsion                 11    13    14    23          81.30776   -0.00024
  121 Torsion                 11    13    14    24         -39.21472   -0.00045
  122 Torsion                 12    11    13    14           0.71790   -0.00024

 Restricting large step in mode   36 eval= 6.3D-02 step= 3.7D-01 new= 3.0D-01
  no constraints, skipping    0.0000000000000000     
  no constraints, skipping    0.0000000000000000     
  no constraints, skipping    0.0000000000000000     
  no constraints, skipping    0.0000000000000000     
  no constraints, skipping    0.0000000000000000     
  no constraints, skipping    0.0000000000000000     
  no constraints, skipping    0.0000000000000000     
  no constraints, skipping    0.0000000000000000     

                                 NWChem DFT Module
                                 -----------------


                            Cn1cnc2c1c(=O)n(C)c(=O)n2C




 Summary of "ao basis" -> "ao basis" (spherical)
 ------------------------------------------------------------------------------
       Tag                 Description            Shells   Functions and Types
 ---------------- ------------------------------  ------  ---------------------
 C                           6-311G                  7       13   4s3p
 N                           6-311G                  7       13   4s3p
 O                           6-311G                  7       13   4s3p
 H                           6-311G                  3        3   3s


  Caching 1-el integrals 

            General Information
            -------------------
          SCF calculation type: DFT
          Wavefunction type:  closed shell.
          No. of atoms     :    24
          No. of electrons :   102
           Alpha electrons :    51
            Beta electrons :    51
          Charge           :     0
          Spin multiplicity:     1
          Use of symmetry is: off; symmetry adaption is: off
          Maximum number of iterations:  30
          This is a Direct SCF calculation.
          AO basis - number of functions:   212
                     number of shells:   128
          Convergence on energy requested:  1.00D-06
          Convergence on density requested:  1.00D-05
          Convergence on gradient requested:  5.00D-04

              XC Information
              --------------
                         B3LYP Method XC Potential
                     Hartree-Fock (Exact) Exchange  0.200          
                        Slater Exchange Functional  0.800 local    
                    Becke 1988 Exchange Functional  0.720 non-local
              Lee-Yang-Parr Correlation Functional  0.810          
                  VWN I RPA Correlation Functional  0.190 local    

             Grid Information
             ----------------
          Grid used for XC integration:  fine      
          Radial quadrature: Mura-Knowles        
          Angular quadrature: Lebedev. 
          Tag              B.-S. Rad. Rad. Pts. Rad. Cut. Ang. Pts.
          ---              ---------- --------- --------- ---------
          C                   0.70       70          16.0       590
          N                   0.65       70          14.0       590
          O                   0.60       70          16.0       590
          H                   0.35       60          16.0       590
          Grid pruning is: on 
          Number of quadrature shells:  1580
          Spatial weights used:  Erf1

          Convergence Information
          -----------------------
          Convergence aids based upon iterative change in 
          total energy or number of iterations. 
          Levelshifting, if invoked, occurs when the 
          HOMO/LUMO gap drops below (HL_TOL):  1.00D-02
          DIIS, if invoked, will attempt to extrapolate 
          using up to (NFOCK): 10 stored Fock matrices.

                    Damping( 0%)  Levelshifting(0.5)       DIIS
                  --------------- ------------------- ---------------
          dE  on:    start            ASAP                start   
          dE off:    2 iters         30 iters            30 iters 


      Screening Tolerance Information
      -------------------------------
          Density screening/tol_rho:  1.00D-10
          AO Gaussian exp screening on grid/accAOfunc:  14
          CD Gaussian exp screening on grid/accCDfunc:  20
          XC Gaussian exp screening on grid/accXCfunc:  20
          Schwarz screening/accCoul:  1.00D-08

          Performing ZORA calculations
          ----------------------------


      Superposition of Atomic Density Guess
      -------------------------------------

 Sum of atomic energies:        -673.12548380

 Read atomic ZORA corrections from ./Cn1cnc2c1c(=O)n(C)c(=O)n2C b3lyp.zora_sf

 Forcing recalculation of ZORA corrections
       Generating atomic ZORA corrections
       ----------------------------------

 In dft_scf:: zora:Knucl= F

 Grid_pts file          = ./Cn1cnc2c1c(=O)n(C)c(=O)n2C b3lyp.gridpts.0
 Record size in doubles =  12289        No. of grid_pts per rec  =   3070
 Max. records in memory =    335        Max. recs in file   =    785391

 Grid integrated density:     102.000018699553
 Requested integration accuracy:   0.10E-06

 Wrote atomic ZORA corrections to ./Cn1cnc2c1c(=O)n(C)c(=O)n2C b3lyp.zora_sf


 Loading old vectors from job with title :

Cn1cnc2c1c(=O)n(C)c(=O)n2C

   Time after variat. SCF:    499.9
   Time prior to 1st pass:    499.9

           Memory utilization after 1st SCF pass: 
           Heap Space remaining (MW):        8.89             8891738
          Stack Space remaining (MW):       13.02            13015308

   convergence    iter        energy       DeltaE   RMS-Dens  Diis-err    time
 ---------------- ----- ----------------- --------- --------- ---------  ------
 d= 0,ls=0.0,diis     1   -680.8251993992 -1.60D+03  3.53D-03  7.35D-02   520.9
 d= 0,ls=0.0,diis     2   -680.8299642467 -4.76D-03  1.56D-03  5.83D-02   542.0
 d= 0,ls=0.0,diis     3   -680.8315912994 -1.63D-03  9.30D-04  4.37D-02   563.1
 d= 0,ls=0.0,diis     4   -680.8355862923 -3.99D-03  1.73D-04  2.89D-03   584.2
 d= 0,ls=0.0,diis     5   -680.8358889644 -3.03D-04  5.09D-05  1.12D-04   605.3
 d= 0,ls=0.0,diis     6   -680.8359008050 -1.18D-05  1.92D-05  2.08D-05   626.4
 d= 0,ls=0.0,diis     7   -680.8359029935 -2.19D-06  5.41D-06  2.37D-06   647.5
 d= 0,ls=0.0,diis     8   -680.8359032582 -2.65D-07  1.33D-06  7.87D-08   668.6
(nogshift,skip_gshiftAOev,done_Fji)=( 1,F,F)


         Total DFT energy =     -680.835903258208
      One electron energy =    -2753.044422805254
           Coulomb energy =     1242.913589394047
    Exchange-Corr. energy =      -92.143724968705
 Nuclear repulsion energy =      921.438655121704

       Scaling correction =        0.198901084601

 Numeric. integr. density =      102.000008746459

     Total iterative time =    168.8s



 center of mass
 --------------
 x =   0.01956568 y =   0.02687042 z =  -0.00041623

 moments of inertia (a.u.)
 ------------------
        2603.663619922111         -13.862393653103          -0.730044236816
         -13.862393653103        1722.478237675914           1.447521465779
          -0.730044236816           1.447521465779        4291.620947724162
 Line search: 
     step= 1.00 grad=-4.0D-02 hess= 2.1D-02 energy=   -680.835903 mode=accept  
 new step= 1.00                   predicted energy=   -680.835903
  no constraints, skipping    0.0000000000000000     
  no constraints, skipping    0.0000000000000000     
  no constraints, skipping    0.0000000000000000     
  no constraints, skipping    0.0000000000000000     
  no constraints, skipping    0.0000000000000000     
  no constraints, skipping    0.0000000000000000     
  no constraints, skipping    0.0000000000000000     
  no constraints, skipping    0.0000000000000000     

          --------
          Step   1
          --------


                Geometry "geometry" -> "Cn1cnc2c1c(=O)n(C)c(=O)n2C"
                ---------------------------------------------------

 Output coordinates in angstroms (scale by  1.889725989 to convert to a.u.)

  No.       Tag          Charge          X              Y              Z
 ---- ---------------- ---------- -------------- -------------- --------------
    1 C                    6.0000     1.03073414    -3.31499784    -0.02561217
    2 N                    7.0000    -0.00199691    -2.27927267     0.00014308
    3 C                    6.0000    -1.35916517    -2.49410891    -0.00998926
    4 N                    7.0000    -2.04955128    -1.33632397     0.00271267
    5 C                    6.0000    -1.07728837    -0.35440872     0.02358165
    6 C                    6.0000     0.19826275    -0.89707578     0.02082033
    7 C                    6.0000     1.38471624    -0.10441976     0.01632659
    8 O                    8.0000     2.57323176    -0.55402204    -0.00389850
    9 N                    7.0000     1.11637302     1.27970845     0.03052251
   10 C                    6.0000     2.25583786     2.19290468    -0.00824443
   11 C                    6.0000    -0.16744491     1.86936935     0.00455703
   12 O                    8.0000    -0.30907354     3.11453618    -0.04142639
   13 N                    7.0000    -1.27085080     1.01943689     0.02955318
   14 C                    6.0000    -2.61116097     1.60113294    -0.01880033
   15 H                    1.0000     1.68137365    -3.22433669     0.83948693
   16 H                    1.0000     0.54039242    -4.28627604    -0.01081268
   17 H                    1.0000     1.63620750    -3.22759154    -0.92382398
   18 H                    1.0000    -1.80941155    -3.46806804    -0.02909031
   19 H                    1.0000     3.09657115     1.70488734     0.47376485
   20 H                    1.0000     2.51782422     2.44454542    -1.03590494
   21 H                    1.0000     1.99566170     3.09855603     0.53006738
   22 H                    1.0000    -3.30901694     0.87639934     0.38918257
   23 H                    1.0000    -2.89512503     1.84718847    -1.04275369
   24 H                    1.0000    -2.62925155     2.50630555     0.58098837

      Atomic Mass 
      ----------- 

      C                 12.000000
      N                 14.003070
      O                 15.994910
      H                  1.007825


 Effective nuclear repulsion energy (a.u.)     921.4386551217

            Nuclear Dipole moment (a.u.) 
            ----------------------------
        X                 Y               Z
 ---------------- ---------------- ----------------
     2.6895694444     1.0033302391    -0.2553739231


                                 NWChem DFT Module
                                 -----------------


                            Cn1cnc2c1c(=O)n(C)c(=O)n2C




 Summary of "ao basis" -> "ao basis" (spherical)
 ------------------------------------------------------------------------------
       Tag                 Description            Shells   Functions and Types
 ---------------- ------------------------------  ------  ---------------------
 C                           6-311G                  7       13   4s3p
 N                           6-311G                  7       13   4s3p
 O                           6-311G                  7       13   4s3p
 H                           6-311G                  3        3   3s



  The DFT is already converged 

         Total DFT energy =   -680.835903258208


            General Information
            -------------------
          SCF calculation type: DFT
          Wavefunction type:  closed shell.
          No. of atoms     :    24
          No. of electrons :   102
           Alpha electrons :    51
            Beta electrons :    51
          Charge           :     0
          Spin multiplicity:     1
          Use of symmetry is: off; symmetry adaption is: off
          Maximum number of iterations:  30
          This is a Direct SCF calculation.
          AO basis - number of functions:   212
                     number of shells:   128
          Convergence on energy requested:  1.00D-06
          Convergence on density requested:  1.00D-05
          Convergence on gradient requested:  5.00D-04

              XC Information
              --------------
                         B3LYP Method XC Potential
                     Hartree-Fock (Exact) Exchange  0.200          
                        Slater Exchange Functional  0.800 local    
                    Becke 1988 Exchange Functional  0.720 non-local
              Lee-Yang-Parr Correlation Functional  0.810          
                  VWN I RPA Correlation Functional  0.190 local    

             Grid Information
             ----------------
          Grid used for XC integration:  fine      
          Radial quadrature: Mura-Knowles        
          Angular quadrature: Lebedev. 
          Tag              B.-S. Rad. Rad. Pts. Rad. Cut. Ang. Pts.
          ---              ---------- --------- --------- ---------
          C                   0.70       70          16.0       590
          N                   0.65       70          14.0       590
          O                   0.60       70          16.0       590
          H                   0.35       60          16.0       590
          Grid pruning is: on 
          Number of quadrature shells:  1580
          Spatial weights used:  Erf1

          Convergence Information
          -----------------------
          Convergence aids based upon iterative change in 
          total energy or number of iterations. 
          Levelshifting, if invoked, occurs when the 
          HOMO/LUMO gap drops below (HL_TOL):  1.00D-02
          DIIS, if invoked, will attempt to extrapolate 
          using up to (NFOCK): 10 stored Fock matrices.

                    Damping( 0%)  Levelshifting(0.5)       DIIS
                  --------------- ------------------- ---------------
          dE  on:    start            ASAP                start   
          dE off:    2 iters         30 iters            30 iters 


      Screening Tolerance Information
      -------------------------------
          Density screening/tol_rho:  1.00D-10
          AO Gaussian exp screening on grid/accAOfunc:  14
          CD Gaussian exp screening on grid/accCDfunc:  20
          XC Gaussian exp screening on grid/accXCfunc:  20
          Schwarz screening/accCoul:  1.00D-08



                            NWChem DFT Gradient Module
                            --------------------------


                            Cn1cnc2c1c(=O)n(C)c(=O)n2C



  charge          =   0.00
  wavefunction    = closed shell



                         DFT ENERGY GRADIENTS

    atom               coordinates                        gradient
                 x          y          z           x          y          z
   1 C       1.947805  -6.264438  -0.048400   -0.001852   0.001558  -0.000206
   2 N      -0.003774  -4.307201   0.000270    0.001151   0.006630   0.000493
   3 C      -2.568450  -4.713182  -0.018877   -0.005064  -0.015344  -0.000390
   4 N      -3.873090  -2.525286   0.005126   -0.002728  -0.003660  -0.000510
   5 C      -2.035780  -0.669735   0.044563    0.001669  -0.000550   0.000957
   6 C       0.374662  -1.695227   0.039345    0.008445   0.001580  -0.000257
   7 C       2.616734  -0.197325   0.030853   -0.018581   0.011722   0.000120
   8 O       4.862703  -1.046950  -0.007367    0.016589  -0.006681  -0.000533
   9 N       2.109639   2.418298   0.057679    0.008750   0.005088   0.001170
  10 C       4.262915   4.143989  -0.015580   -0.006579  -0.004991  -0.004512
  11 C      -0.316425   3.532596   0.008612    0.001634  -0.010596   0.001155
  12 O      -0.584064   5.885620  -0.078285   -0.001092   0.007230  -0.000909
  13 N      -2.401560   1.926456   0.055847   -0.004323   0.008757   0.000090
  14 C      -4.934379   3.025703  -0.035527    0.005821  -0.001037  -0.002539
  15 H       3.177335  -6.093113   1.586400   -0.000404  -0.000424  -0.000186
  16 H       1.021194  -8.099887  -0.020433   -0.000345  -0.000248   0.000044
  17 H       3.091984  -6.099264  -1.745774   -0.000375  -0.000389   0.000164
  18 H      -3.419292  -6.553698  -0.054973   -0.001441   0.000814  -0.000147
  19 H       5.851671   3.221770   0.895286   -0.000501   0.000902   0.002168
  20 H       4.757998   4.619521  -1.957576   -0.000341  -0.000316  -0.000297
  21 H       3.771254   5.855422   1.001682    0.000621  -0.000390   0.001921
  22 H      -6.253135   1.656155   0.735448    0.000092   0.000809   0.001362
  23 H      -5.470993   3.490680  -1.970519   -0.000184  -0.000120  -0.000413
  24 H      -4.968565   4.736231   1.097909   -0.000961  -0.000343   0.001257

                 ----------------------------------------
                 |  Time  |  1-e(secs)   |  2-e(secs)   |
                 ----------------------------------------
                 |  CPU   |       0.09   |      34.46   |
                 ----------------------------------------
                 |  WALL  |       0.09   |      34.47   |
                 ----------------------------------------
  no constraints, skipping    0.0000000000000000     

  Step       Energy      Delta E   Gmax     Grms     Xrms     Xmax   Walltime
  ---- ---------------- -------- -------- -------- -------- -------- --------
@    1    -680.83590326 -1.8D-02  0.01789  0.00244  0.07681  0.27522    716.8
                                                                    



                                Z-matrix (autoz)
                                -------- 

 Units are Angstrom for bonds and degrees for angles

      Type          Name      I     J     K     L     M      Value     Gradient
      ----------- --------  ----- ----- ----- ----- ----- ---------- ----------
    1 Stretch                  1     2                       1.46285   -0.00245
    2 Stretch                  1    15                       1.08625   -0.00043
    3 Stretch                  1    16                       1.08813    0.00038
    4 Stretch                  1    17                       1.08675   -0.00038
    5 Stretch                  2     3                       1.37410    0.00586
    6 Stretch                  2     6                       1.39678    0.00440
    7 Stretch                  3     4                       1.34806    0.00213
    8 Stretch                  3    18                       1.07316   -0.00013
    9 Stretch                  4     5                       1.38199    0.00885
   10 Stretch                  5     6                       1.38619    0.00102
   11 Stretch                  5    13                       1.38743    0.00562
   12 Stretch                  6     7                       1.42688    0.00203
   13 Stretch                  7     8                       1.27087    0.01789
   14 Stretch                  7     9                       1.40997   -0.00116
   15 Stretch                  9    10                       1.46076   -0.00828
   16 Stretch                  9    11                       1.41300   -0.00021
   17 Stretch                 10    19                       1.08505    0.00017
   18 Stretch                 10    20                       1.08998    0.00013
   19 Stretch                 10    21                       1.08521    0.00048
   20 Stretch                 11    12                       1.25404    0.00734
   21 Stretch                 11    13                       1.39302   -0.00068
   22 Stretch                 13    14                       1.46190   -0.00464
   23 Stretch                 14    22                       1.08568   -0.00009
   24 Stretch                 14    23                       1.09072    0.00041
   25 Stretch                 14    24                       1.08601    0.00042
   26 Bend                     1     2     3               125.90518   -0.00353
   27 Bend                     1     2     6               126.84630   -0.00030
   28 Bend                     2     1    15               110.47178    0.00019
   29 Bend                     2     1    16               108.27725   -0.00028
   30 Bend                     2     1    17               110.54443    0.00017
   31 Bend                     2     3     4               111.80652   -0.00358
   32 Bend                     2     3    18               123.80744    0.00268
   33 Bend                     2     6     5               104.80283   -0.00149
   34 Bend                     2     6     7               131.98087    0.00205
   35 Bend                     3     2     6               107.24319    0.00382
   36 Bend                     3     4     5               104.48149    0.00079
   37 Bend                     4     3    18               124.38573    0.00091
   38 Bend                     4     5     6               111.66579    0.00046
   39 Bend                     4     5    13               127.26263    0.00205
   40 Bend                     5     6     7               123.20703   -0.00056
   41 Bend                     5    13    11               119.57607   -0.00064
   42 Bend                     5    13    14               121.45149    0.00100
   43 Bend                     6     5    13               121.06657   -0.00251
   44 Bend                     6     7     8               125.53064   -0.00103
   45 Bend                     6     7     9               112.77121    0.00158
   46 Bend                     7     9    10               117.70823    0.00023
   47 Bend                     7     9    11               125.61930    0.00032
   48 Bend                     8     7     9               121.69751   -0.00055
   49 Bend                     9    10    19               108.14662   -0.00005
   50 Bend                     9    10    20               110.90642   -0.00006
   51 Bend                     9    10    21               108.75586   -0.00011
   52 Bend                     9    11    12               121.17450   -0.00074
   53 Bend                     9    11    13               117.69292    0.00182
   54 Bend                    10     9    11               116.57477   -0.00055
   55 Bend                    11    13    14               118.87147   -0.00036
   56 Bend                    12    11    13               121.13250   -0.00108
   57 Bend                    13    14    22               108.13619   -0.00004
   58 Bend                    13    14    23               111.07004    0.00014
   59 Bend                    13    14    24               109.18709    0.00035
   60 Bend                    15     1    16               109.48630   -0.00008
   61 Bend                    15     1    17               108.53069    0.00006
   62 Bend                    16     1    17               109.51757   -0.00006
   63 Bend                    19    10    20               109.65948    0.00055
   64 Bend                    19    10    21               109.92297   -0.00086
   65 Bend                    20    10    21               109.42922    0.00050
   66 Bend                    22    14    23               109.63518    0.00018
   67 Bend                    22    14    24               109.76341   -0.00079
   68 Bend                    23    14    24               109.03338    0.00014
[...]
          anisotropy =     488.4946

          Principal Components and Axis System
                 1           2           3
              303.3007   -259.2990   -111.0887

      1        -0.0051     -0.1390      0.9903
      2         0.0172      0.9901      0.1391
      3         0.9998     -0.0177      0.0027



      Atom:   13  N 
        Diamagnetic
    341.8581     -1.5573      0.1827
     -1.5573    346.3144     -0.5988
      0.1827     -0.5988    312.5760

        Paramagnetic
   -263.4158     56.3771     -1.5768
     56.3771   -262.8706      2.3879
     -1.5768      2.3879   -141.1775

        Total Shielding Tensor
     78.4423     54.8198     -1.3941
     54.8198     83.4438      1.7891
     -1.3941      1.7891    171.3985

           isotropic =     111.0949
          anisotropy =      90.5121

          Principal Components and Axis System
                 1           2           3
              171.4362    135.8168     26.0316

      1        -0.0047      0.6909      0.7229
      2         0.0174      0.7229     -0.6908
      3         0.9998     -0.0093      0.0154



      Atom:   14  C 
        Diamagnetic
    262.7908     -9.6615      0.2799
     -9.6615    246.0751     -0.1366
      0.2799     -0.1366    240.7782

        Paramagnetic
    -81.4998     -9.2801      0.2010
     -9.2801   -103.7249      0.1816
      0.2010      0.1816    -90.2074

        Total Shielding Tensor
    181.2910    -18.9416      0.4809
    -18.9416    142.3502      0.0450
      0.4809      0.0450    150.5708

           isotropic =     158.0707
          anisotropy =      46.3780

          Principal Components and Axis System
                 1           2           3
              188.9893    150.5692    134.6535

      1         0.9265     -0.0051      0.3764
      2        -0.3762      0.0172      0.9264
      3         0.0112      0.9998     -0.0140



      Atom:   15  H 
        Diamagnetic
     30.7066     -2.8121      8.1299
     -2.8121     26.7828     -1.5513
      8.1299     -1.5513     29.5270

        Paramagnetic
     -0.4641      0.3325     -3.5463
      0.3325      1.9710      0.1647
     -3.5463      0.1647     -2.3536

        Total Shielding Tensor
     30.2425     -2.4796      4.5836
     -2.4796     28.7538     -1.3866
      4.5836     -1.3866     27.1734

           isotropic =      28.7232
          anisotropy =       9.1907

          Principal Components and Axis System
                 1           2           3
               34.8504     27.4706     23.8487

      1         0.7435      0.2936     -0.6008
      2        -0.4206      0.9038     -0.0789
      3         0.5199      0.3114      0.7955



      Atom:   16  H 
        Diamagnetic
     26.0643      1.0757     -0.0492
      1.0757     40.7148     -0.5335
     -0.0492     -0.5335     20.7624

        Paramagnetic
      2.2726     -1.6487      0.0580
     -1.6487     -6.2639      0.2503
      0.0580      0.2503      2.9035

        Total Shielding Tensor
     28.3368     -0.5730      0.0088
     -0.5730     34.4510     -0.2832
      0.0088     -0.2832     23.6659

           isotropic =      28.8179
          anisotropy =       8.5405

          Principal Components and Axis System
                 1           2           3
               34.5116     28.2837     23.6585

      1        -0.0924      0.9957      0.0013
      2         0.9954      0.0923      0.0263
      3        -0.0261     -0.0038      0.9997



      Atom:   17  H 
        Diamagnetic
     30.5304     -3.2460     -7.9805
     -3.2460     26.8477      1.8209
     -7.9805      1.8209     29.6319

        Paramagnetic
     -0.3450      0.5112      3.5233
      0.5112      1.9649     -0.4076
      3.5233     -0.4076     -2.3987

        Total Shielding Tensor
     30.1854     -2.7348     -4.4572
     -2.7348     28.8126      1.4133
     -4.4572      1.4133     27.2331

           isotropic =      28.7437
          anisotropy =       9.2728

          Principal Components and Axis System
                 1           2           3
               34.9256     27.3451     23.9604

      1         0.7360      0.2903      0.6116
      2        -0.4468      0.8870      0.1168
      3        -0.5086     -0.3592      0.7825



      Atom:   18  H 
        Diamagnetic
     28.6385      8.0265     -0.0883
      8.0265     39.7403     -0.3200
     -0.0883     -0.3200     18.8863

        Paramagnetic
     -1.7460     -7.1245      0.0939
     -7.1245    -13.3871      0.2443
      0.0939      0.2443      2.9730

        Total Shielding Tensor
     26.8925      0.9020      0.0056
      0.9020     26.3532     -0.0757
      0.0056     -0.0757     21.8593

           isotropic =      25.0350
          anisotropy =       3.7944

          Principal Components and Axis System
                 1           2           3
               27.5646     25.6825     21.8579

      1         0.8018     -0.5975     -0.0043
      2         0.5975      0.8017      0.0177
      3        -0.0072     -0.0167      0.9998



      Atom:   19  H 
        Diamagnetic
     37.4223     -1.2216      0.1160
     -1.2216     29.2058     -0.1771
      0.1160     -0.1771     19.1978

        Paramagnetic
     -4.2661      1.1614     -0.0594
      1.1614      0.9314      0.0390
     -0.0594      0.0390      2.9461

        Total Shielding Tensor
     33.1562     -0.0602      0.0565
     -0.0602     30.1372     -0.1381
      0.0565     -0.1381     22.1439

           isotropic =      28.4791
          anisotropy =       7.0179

          Principal Components and Axis System
                 1           2           3
               33.1577     30.1384     22.1412

      1         0.9998      0.0203     -0.0050
      2        -0.0202      0.9996      0.0172
      3         0.0054     -0.0171      0.9998



      Atom:   20  H 
        Diamagnetic
     26.8999      4.3511     -2.3724
      4.3511     30.8237     -8.1654
     -2.3724     -8.1654     30.2908

        Paramagnetic
      2.1700     -1.2256      0.6136
     -1.2256     -0.7374      3.2892
      0.6136      3.2892     -0.0873

        Total Shielding Tensor
     29.0699      3.1255     -1.7589
      3.1255     30.0864     -4.8762
     -1.7589     -4.8762     30.2035

           isotropic =      29.7866
          anisotropy =      10.2429

          Principal Components and Axis System
                 1           2           3
               36.6152     27.8062     24.9384

      1        -0.4193      0.8514     -0.3152
      2        -0.6635     -0.0504      0.7465
      3         0.6196      0.5221      0.5860



      Atom:   21  H 
        Diamagnetic
     26.8432      4.3426      2.1986
      4.3426     31.3649      8.1745
      2.1986      8.1745     29.7914

        Paramagnetic
      2.1836     -1.2104     -0.5542
     -1.2104     -0.9534     -3.2723
     -0.5542     -3.2723      0.1190

        Total Shielding Tensor
     29.0268      3.1322      1.6444
      3.1322     30.4115      4.9022
      1.6444      4.9022     29.9104

           isotropic =      29.7829
          anisotropy =      10.2451

          Principal Components and Axis System
                 1           2           3
               36.6130     27.7996     24.9362

      1         0.4128      0.8566      0.3096
      2         0.6840     -0.0670     -0.7264
      3         0.6015     -0.5116      0.6136



      Atom:   22  H 
        Diamagnetic
     36.8767      3.5353      0.0160
      3.5353     31.3799     -0.1735
      0.0160     -0.1735     20.4704

        Paramagnetic
     -3.0608     -2.4036      0.0215
     -2.4036     -1.0056      0.0307
      0.0215      0.0307      1.2970

        Total Shielding Tensor
     33.8159      1.1317      0.0375
      1.1317     30.3743     -0.1428
      0.0375     -0.1428     21.7674

           isotropic =      28.6525
          anisotropy =       8.2532

          Principal Components and Axis System
                 1           2           3
               34.1547     30.0381     21.7647

      1         0.9580     -0.2868     -0.0047
      2         0.2868      0.9578      0.0172
      3        -0.0004     -0.0178      0.9998



      Atom:   23  H 
        Diamagnetic
     29.1920     -4.5603      4.3961
     -4.5603     28.8608     -7.2497
      4.3961     -7.2497     31.0352

        Paramagnetic
      1.4390      1.5625     -1.4071
      1.5625     -0.5209      3.1108
     -1.4071      3.1108     -1.6508

        Total Shielding Tensor
     30.6310     -2.9978      2.9890
     -2.9978     28.3399     -4.1389
      2.9890     -4.1389     29.3844

           isotropic =      29.4517
          anisotropy =      10.1626

          Principal Components and Axis System
                 1           2           3
               36.2268     27.4573     24.6711

      1         0.6029      0.7947      0.0708
      2        -0.5382      0.3396      0.7714
      3         0.5889     -0.5032      0.6325



      Atom:   24  H 
        Diamagnetic
     29.2830     -4.7818     -4.2409
     -4.7818     29.3783      7.2609
     -4.2409      7.2609     30.4370

        Paramagnetic
      1.4130      1.6439      1.3769
      1.6439     -0.7434     -3.1276
      1.3769     -3.1276     -1.4025

        Total Shielding Tensor
     30.6961     -3.1379     -2.8639
     -3.1379     28.6349      4.1333
     -2.8639      4.1333     29.0344

           isotropic =      29.4551
          anisotropy =      10.1556

          Principal Components and Axis System
                 1           2           3
               36.2255     27.4661     24.6738

      1        -0.6088      0.7896      0.0765
      2         0.5585      0.3581      0.7482
      3         0.5635      0.4982     -0.6590




 Task  times  cpu:    13299.9s     wall:    13303.0s


                                NWChem Input Module
                                -------------------


 Summary of allocated global arrays
-----------------------------------
  array 0 => double precision sf 1(212,212),  handle: -987 
  array 1 => double precision sf 1(212,212),  handle: -986 
  array 2 => double precision sf 1(212,212),  handle: -985 
  array 3 => double precision sf 1(212,212),  handle: -984 
  array 4 => double precision sf 1(212,212),  handle: -983 
  array 5 => double precision sf 1(212,212),  handle: -982 
  array 6 => double precision sf 1(212,212),  handle: -981 
  array 7 => double precision sf 1(212,212),  handle: -980 
  array 8 => double precision sf 1(212,212),  handle: -979 
  array 9 => double precision sf 1(212,212),  handle: -978 
  array 10 => double precision sf 1(212,212),  handle: -977 
  array 11 => double precision sf 1(212,212),  handle: -976 
  array 12 => double precision sf 1(212,212),  handle: -975 
  array 13 => double precision sf 1(212,212),  handle: -974 
  array 14 => double precision sf 1(212,212),  handle: -973 
  array 15 => double precision sf 1(212,212),  handle: -972 
  array 16 => double precision sf 1(212,212),  handle: -971 
  array 17 => double precision sf 1(212,212),  handle: -970 
  array 18 => double precision sf 1(212,212),  handle: -969 
  array 19 => double precision sf 1(212,212),  handle: -968 
  array 20 => double precision sf 1(212,212),  handle: -967 
  array 21 => double precision sf 1(212,212),  handle: -966 
  array 22 => double precision sf 1(212,212),  handle: -965 
  array 23 => double precision sf 1(212,212),  handle: -964 
  array 24 => double precision sf 1(212,212),  handle: -963 
  array 25 => double precision sf 1(212,212),  handle: -962 
  array 26 => double precision sf 1(212,212),  handle: -961 
  array 27 => double precision sf 1(212,212),  handle: -960 
  array 28 => double precision sf 1(212,212),  handle: -959 
  array 29 => double precision sf 1(212,212),  handle: -958 
  array 30 => double precision sf 1(212,212),  handle: -957 
  array 31 => double precision sf 1(212,212),  handle: -956 
  array 32 => double precision sf 1(212,212),  handle: -955 
  array 33 => double precision sf 1(212,212),  handle: -954 
  array 34 => double precision sf 1(212,212),  handle: -953 
  array 35 => double precision sf 1(212,212),  handle: -952 
  array 36 => double precision sf 1(212,212),  handle: -951 
  array 37 => double precision sf 1(212,212),  handle: -950 
  array 38 => double precision sf 1(212,212),  handle: -949 
  array 39 => double precision sf 1(212,212),  handle: -948 
  array 40 => double precision sf 1(212,212),  handle: -947 
  array 41 => double precision sf 1(212,212),  handle: -946 
  array 42 => double precision sf 1(212,212),  handle: -945 
  array 43 => double precision sf 1(212,212),  handle: -944 
  array 44 => double precision sf 1(212,212),  handle: -943 
  array 45 => double precision sf 1(212,212),  handle: -942 
  array 46 => double precision sf 1(212,212),  handle: -941 
  array 47 => double precision sf 1(212,212),  handle: -940 
  array 48 => double precision sf 1(212,212),  handle: -939 
  array 49 => double precision sf 1(212,212),  handle: -938 
  array 50 => double precision sf 1(212,212),  handle: -937 
  array 51 => double precision sf 1(212,212),  handle: -936 
  array 52 => double precision sf 1(212,212),  handle: -935 
  array 53 => double precision sf 1(212,212),  handle: -934 
  array 54 => double precision sf 1(212,212),  handle: -933 
  array 55 => double precision sf 1(212,212),  handle: -932 
  array 56 => double precision sf 1(212,212),  handle: -931 
  array 57 => double precision sf 1(212,212),  handle: -930 
  array 58 => double precision sf 1(212,212),  handle: -929 
  array 59 => double precision sf 1(212,212),  handle: -928 
  array 60 => double precision sf 1(212,212),  handle: -927 
  array 61 => double precision sf 1(212,212),  handle: -926 
  array 62 => double precision sf 1(212,212),  handle: -925 
  array 63 => double precision sf 1(212,212),  handle: -924 
  array 64 => double precision sf 1(212,212),  handle: -923 
  array 65 => double precision sf 1(212,212),  handle: -922 
  array 66 => double precision sf 1(212,212),  handle: -921 
  array 67 => double precision sf 1(212,212),  handle: -920 
  array 68 => double precision sf 1(212,212),  handle: -919 
  array 69 => double precision sf 1(212,212),  handle: -918 
  array 70 => double precision sf 1(212,212),  handle: -917 
  array 71 => double precision sf 1(212,212),  handle: -916 
  array 72 => double precision sf 1(212,212),  handle: -915 
  array 73 => double precision sf 1(212,212),  handle: -914 
  array 74 => double precision sf 1(212,212),  handle: -913 
  array 75 => double precision sf 1(212,212),  handle: -912 
  array 76 => double precision sf 1(212,212),  handle: -911 
  array 77 => double precision sf 1(212,212),  handle: -910 
  array 78 => double precision sf 1(212,212),  handle: -909 
  array 79 => double precision sf 1(212,212),  handle: -908 
  array 80 => double precision sf 1(212,212),  handle: -907 
  array 81 => double precision sf 1(212,212),  handle: -906 
  array 82 => double precision sf 1(212,212),  handle: -905 
  array 83 => double precision sf 1(212,212),  handle: -904 
  array 84 => double precision sf 1(212,212),  handle: -903 
  array 85 => double precision sf 1(212,212),  handle: -902 
  array 86 => double precision sf 1(212,212),  handle: -901 



                         GA Statistics for process    0
                         ------------------------------

       create   destroy   get      put      acc     scatter   gather  read&inc
calls: 1.08e+04 1.03e+04 1.81e+09 4.52e+05 9.30e+07   79        0     6.35e+05 
number of processes/call 0.00e+00 0.00e+00 0.00e+00 0.00e+00 0.00e+00
bytes total:             8.92e+10 1.70e+10 3.47e+10 1.97e+05 0.00e+00 5.08e+06
bytes remote:            0.00e+00 0.00e+00 0.00e+00 0.00e+00 0.00e+00 0.00e+00
Max memory consumed for GA by this process: 90261848 bytes

MA_summarize_allocated_blocks: starting scan ...
MA_summarize_allocated_blocks: scan completed: 0 heap blocks, 0 stack blocks
MA usage statistics:

	allocation statistics:
					      heap	     stack
					      ----	     -----
	current number of blocks	         0	         0
	maximum number of blocks	        65	        55
	current total bytes		         0	         0
	maximum total bytes		  60710144	  61584920
	maximum total K-bytes		     60711	     61585
	maximum total M-bytes		        61	        62


                                     CITATION
                                     --------
                Please cite the following reference when publishing
                           results obtained with NWChem:

          E. Apr, E. J. Bylaska, W. A. de Jong, N. Govind, K. Kowalski,
       T. P. Straatsma, M. Valiev, H. J. J. van Dam, Y. Alexeev, J. Anchell,
       V. Anisimov, F. W. Aquino, R. Atta-Fynn, J. Autschbach, N. P. Bauman,
     J. C. Becca, D. E. Bernholdt, K. Bhaskaran-Nair, S. Bogatko, P. Borowski,
        J. Boschen, J. Brabec, A. Bruner, E. Caut, Y. Chen, G. N. Chuev,
      C. J. Cramer, J. Daily, M. J. O. Deegan, T. H. Dunning Jr., M. Dupuis,
   K. G. Dyall, G. I. Fann, S. A. Fischer, A. Fonari, H. Frchtl, L. Gagliardi,
      J. Garza, N. Gawande, S. Ghosh, K. Glaesemann, A. W. Gtz, J. Hammond,
       V. Helms, E. D. Hermes, K. Hirao, S. Hirata, M. Jacquelin, L. Jensen,
   B. G. Johnson, H. Jnsson, R. A. Kendall, M. Klemm, R. Kobayashi, V. Konkov,
      S. Krishnamoorthy, M. Krishnan, Z. Lin, R. D. Lins, R. J. Littlefield,
      A. J. Logsdail, K. Lopata, W. Ma, A. V. Marenich, J. Martin del Campo,
   D. Mejia-Rodriguez, J. E. Moore, J. M. Mullin, T. Nakajima, D. R. Nascimento,
    J. A. Nichols, P. J. Nichols, J. Nieplocha, A. Otero-de-la-Roza, B. Palmer,
    A. Panyala, T. Pirojsirikul, B. Peng, R. Peverati, J. Pittner, L. Pollack,
   R. M. Richard, P. Sadayappan, G. C. Schatz, W. A. Shelton, D. W. Silverstein,
   D. M. A. Smith, T. A. Soares, D. Song, M. Swart, H. L. Taylor, G. S. Thomas,
            V. Tipparaju, D. G. Truhlar, K. Tsemekhman, T. Van Voorhis,
     . Vzquez-Mayagoitia, P. Verma, O. Villa, A. Vishnu, K. D. Vogiatzis,
        D. Wang, J. H. Weare, M. J. Williamson, T. L. Windus, K. Woliski,
        A. T. Wong, Q. Wu, C. Yang, Q. Yu, M. Zacharias, Z. Zhang, Y. Zhao,
                                and R. J. Harrison
                        "NWChem: Past, present, and future
                         J. Chem. Phys. 152, 184102 (2020)
                               doi:10.1063/5.0004997

                                      AUTHORS
                                      -------
     E. Apra, E. J. Bylaska, N. Govind, K. Kowalski, M. Valiev, W. A. de Jong,
      T. P. Straatsma, H. J. J. van Dam, D. Wang, T. L. Windus, N. P. Bauman,
       A. Panyala, J. Hammond, J. Autschbach, K. Bhaskaran-Nair, J. Brabec,
    K. Lopata, S. A. Fischer, S. Krishnamoorthy, M. Jacquelin, W. Ma, M. Klemm,
       O. Villa, Y. Chen, V. Anisimov, F. Aquino, S. Hirata, M. T. Hackler,
           Eric Hermes, L. Jensen, J. E. Moore, J. C. Becca, V. Konjkov,
            D. Mejia-Rodriguez, T. Risthaus, M. Malagoli, A. Marenich,
   A. Otero-de-la-Roza, J. Mullin, P. Nichols, R. Peverati, J. Pittner, Y. Zhao,
        P.-D. Fan, A. Fonari, M. J. Williamson, R. J. Harrison, J. R. Rehr,
      M. Dupuis, D. Silverstein, D. M. A. Smith, J. Nieplocha, V. Tipparaju,
      M. Krishnan, B. E. Van Kuiken, A. Vazquez-Mayagoitia, M. Swart, Q. Wu,
   T. Van Voorhis, A. A. Auer, M. Nooijen, L. D. Crosby, E. Brown, G. Cisneros,
     G. I. Fann, H. Fruchtl, J. Garza, K. Hirao, R. A. Kendall, J. A. Nichols,
       K. Tsemekhman, K. Wolinski, J. Anchell, D. E. Bernholdt, P. Borowski,
       T. Clark, D. Clerc, H. Dachsel, M. J. O. Deegan, K. Dyall, D. Elwood,
      E. Glendening, M. Gutowski, A. C. Hess, J. Jaffe, B. G. Johnson, J. Ju,
        R. Kobayashi, R. Kutteh, Z. Lin, R. Littlefield, X. Long, B. Meng,
      T. Nakajima, S. Niu, L. Pollack, M. Rosing, K. Glaesemann, G. Sandrone,
      M. Stave, H. Taylor, G. Thomas, J. H. van Lenthe, A. T. Wong, Z. Zhang.

 Total times  cpu:    34717.0s     wall:    34731.9s
